Element name;Symbol;clasificacion;Possible hybridization;Z;Q;N;Complete electronic configuration;Special configuration;Config;Energy;Ionization;Valence_n;Valence_l;n;l;mz;N_list;A_list;C_list
Antimony;Sb;Metaloid;sp2;51;0;51;1s^2 2s^2 2p^6 3s^2 3p^6 4s^2 3d^10 4p^6 5s^2 4d^10 5p^3;Half orbital;2D;-6313,48531364;0,3176;5;1;4;0;2;[1, 3, 1, 4, 3, 2, 2, 4, 4, 2, 3, 2, 2, 2];[81.669053, 62.093595, 52.030871, 36.759376, 23.815342, 23.814678, 19.636087, 14.494462, 10.724371, 4.044819, 2.384963, 2.360123, 1.204949, 0.818182];[0.013989966244, -0.012513244443, -0.113017301101, 0.007670552941, 0.746283608134, 1.272062754780, -1.827810642448, -0.864307083825, -0.885212412968, 2.336722322515, 0.029045118144, -0.040760039031, -0.003004213871, 0.000860266110]
Antimony;Sb;Metaloid;sp2;51;0;51;1s^2 2s^2 2p^6 3s^2 3p^6 4s^2 3d^10 4p^6 5s^2 4d^10 5p^3;Half orbital;2D;-6313,48531364;0,3176;5;1;5;0;2;[1, 3, 1, 4, 3, 2, 2, 4, 4, 2, 3, 2, 2, 2];[81.669053, 62.093595, 52.030871, 36.759376, 23.815342, 23.814678, 19.636087, 14.494462, 10.724371, 4.044819, 2.384963, 2.360123, 1.204949, 0.818182];[-0.004436812209, 0.003737766445, 0.035272748987, -0.005292128572, -0.224285220026, -0.400857137198, 0.579010710819, 0.306386115597, 0.325035067001, -0.714803214236, 0.693328664134, -1.014035530527, 1.507411650347, 0.043435731091]
Antimony;Sb;Metaloid;sp2;51;0;51;1s^2 2s^2 2p^6 3s^2 3p^6 4s^2 3d^10 4p^6 5s^2 4d^10 5p^3;Half orbital;2D;-6313,48531364;0,3176;5;1;2;1;6;[2, 3, 3, 2, 3, 3, 3, 3, 2, 2, 3, 2, 2];[62.951697, 55.728392, 36.852535, 26.182019, 21.277839, 12.070084, 10.015351, 4.633217, 3.778525, 2.345676, 2.323959, 1.067563, 0.818182];[0.038166969376, 0.043909553129, 0.249922908150, -2.296116412233, -0.544144103451, -0.001368774868, -0.008740024351, -0.014395896167, 0.019468299527, -0.000840909829, -0.000100674028, 0.000182731935, -0.000086222039]
Antimony;Sb;Metaloid;sp2;51;0;51;1s^2 2s^2 2p^6 3s^2 3p^6 4s^2 3d^10 4p^6 5s^2 4d^10 5p^3;Half orbital;2D;-6313,48531364;0,3176;5;1;3;1;6;[2, 3, 3, 2, 3, 3, 3, 3, 2, 2, 3, 2, 2];[62.951697, 55.728392, 36.852535, 26.182019, 21.277839, 12.070084, 10.015351, 4.633217, 3.778525, 2.345676, 2.323959, 1.067563, 0.818182];[0.064206515036, 0.071820998850, 0.340269152976, -1.479833263511, -0.298255749857, 1.815474840465, 0.781544730138, -0.488906885007, 0.743693499990, -0.102099631459, 0.035249872041, -0.002625608055, 0.000939134367]
Antimony;Sb;Metaloid;sp2;51;0;51;1s^2 2s^2 2p^6 3s^2 3p^6 4s^2 3d^10 4p^6 5s^2 4d^10 5p^3;Half orbital;2D;-6313,48531364;0,3176;5;1;4;1;6;[2, 3, 3, 2, 3, 3, 3, 3, 2, 2, 3, 2, 2];[62.951697, 55.728392, 36.852535, 26.182019, 21.277839, 12.070084, 10.015351, 4.633217, 3.778525, 2.345676, 2.323959, 1.067563, 0.818182];[-0.046104540888, -0.051123545371, -0.241232363492, 0.775885918935, 0.015229212578, -0.499438466156, -1.811114503774, 0.932322091459, 2.077169751370, 0.444830031728, -0.105304788787, 0.008935248684, -0.003117955494]
Antimony;Sb;Metaloid;sp2;51;0;51;1s^2 2s^2 2p^6 3s^2 3p^6 4s^2 3d^10 4p^6 5s^2 4d^10 5p^3;Half orbital;2D;-6313,48531364;0,3176;5;1;5;1;3;[2, 3, 3, 2, 3, 3, 3, 3, 2, 2, 3, 2, 2];[62.951697, 55.728392, 36.852535, 26.182019, 21.277839, 12.070084, 10.015351, 4.633217, 3.778525, 2.345676, 2.323959, 1.067563, 0.818182];[0.009673330555, 0.010702341940, 0.050543840641, -0.150645811809, 0.007790937738, 0.074086048423, 0.432050720874, 0.004576771054, -0.489686443546, -0.920847236715, 0.266130472608, 1.452803167785, 0.599233634178]
Antimony;Sb;Metaloid;sp2;51;0;51;1s^2 2s^2 2p^6 3s^2 3p^6 4s^2 3d^10 4p^6 5s^2 4d^10 5p^3;Half orbital;2D;-6313,48531364;0,3176;5;1;3;2;10;[3, 4, 3, 3, 3, 3, 3, 3, 3, 3, 3];[56.325199, 43.270728, 23.861190, 19.352127, 12.040675, 9.494720, 7.952780, 4.413147, 2.960090, 1.974195, 0.818182];[0.002390681911, 0.011791184711, -0.053655629971, 0.548770913402, 1.715155208639, 0.620554932515, 0.484491927859, 0.010281197129, -0.001889777130, 0.000310219438, -0.000037314876]
Antimony;Sb;Metaloid;sp2;51;0;51;1s^2 2s^2 2p^6 3s^2 3p^6 4s^2 3d^10 4p^6 5s^2 4d^10 5p^3;Half orbital;2D;-6313,48531364;0,3176;5;1;4;2;10;[3, 4, 3, 3, 3, 3, 3, 3, 3, 3, 3];[56.325199, 43.270728, 23.861190, 19.352127, 12.040675, 9.494720, 7.952780, 4.413147, 2.960090, 1.974195, 0.818182];[-0.001455912635, -0.007491119549, 0.066410360686, -0.308760363550, -0.266382048171, -1.459607439960, 0.644364353474, 1.867142178681, 1.425130075314, 0.211767931841, 0.001321832062]
Tellurium;Te;Metaloid;sp2;52;0;52;1s^2 2s^2 2p^6 3s^2 3p^6 4s^2 3d^10 4p^6 5s^2 4d^10 5p^4;No special;3F;-6611,784051172;0,3312;5;1;1;0;2;[1, 3, 1, 4, 4, 3, 2, 4, 4, 2, 3, 2, 2, 2];[85.845242, 64.575316, 53.318205, 38.055728, 23.183837, 23.181322, 20.472540, 14.954391, 11.061281, 4.106440, 2.453937, 2.078816, 1.341043, 0.848330];[0.021495904727, -0.025856632246, -1.392092999516, 0.030278736634, 0.004072086531, 0.062296390265, -0.116950794703, 0.000029132799, 0.000145805418, -0.000233769502, -0.000366705577, 0.000483095353, 0.000008909545, -0.000004949747]
Tellurium;Te;Metaloid;sp2;52;0;52;1s^2 2s^2 2p^6 3s^2 3p^6 4s^2 3d^10 4p^6 5s^2 4d^10 5p^4;No special;3F;-6611,784051172;0,3312;5;1;2;0;2;[1, 3, 1, 4, 4, 3, 2, 4, 4, 2, 3, 2, 2, 2];[85.845242, 64.575316, 53.318205, 38.055728, 23.183837, 23.181322, 20.472540, 14.954391, 11.061281, 4.106440, 2.453937, 2.078816, 1.341043, 0.848330];[-0.070530365889, 0.066216165996, 0.581296504200, -0.163080461209, 0.087271401777, 0.007491089240, -1.462246477491, -0.005938848434, 0.001441932148, -0.000391737157, -0.000975241673, 0.001255397379, 0.000031536962, -0.000015414928]
Tellurium;Te;Metaloid;sp2;52;0;52;1s^2 2s^2 2p^6 3s^2 3p^6 4s^2 3d^10 4p^6 5s^2 4d^10 5p^4;No special;3F;-6611,784051172;0,3312;5;1;3;0;2;[1, 3, 1, 4, 4, 3, 2, 4, 4, 2, 3, 2, 2, 2];[85.845242, 64.575316, 53.318205, 38.055728, 23.183837, 23.181322, 20.472540, 14.954391, 11.061281, 4.106440, 2.453937, 2.078816, 1.341043, 0.848330];[0.030553235487, -0.029513081412, -0.256400878656, 0.046962214030, -0.333936692848, 0.330465788502, 0.632654942510, -1.096122283963, -0.418288592147, -0.016631010072, -0.008522899455, 0.012925204853, -0.000524248968, 0.000073963369]
Tellurium;Te;Metaloid;sp2;52;0;52;1s^2 2s^2 2p^6 3s^2 3p^6 4s^2 3d^10 4p^6 5s^2 4d^10 5p^4;No special;3F;-6611,784051172;0,3312;5;1;4;0;2;[1, 3, 1, 4, 4, 3, 2, 4, 4, 2, 3, 2, 2, 2];[85.845242, 64.575316, 53.318205, 38.055728, 23.183837, 23.181322, 20.472540, 14.954391, 11.061281, 4.106440, 2.453937, 2.078816, 1.341043, 0.848330];[0.012490758447, -0.012380166946, -0.111956216665, 0.007281078526, -0.285867291020, 0.190176227379, 0.211826705648, -0.879381610450, -0.913312129345, 2.543771390485, 0.417734644694, -0.610196806875, 0.022201031609, -0.001901551556]
Tellurium;Te;Metaloid;sp2;52;0;52;1s^2 2s^2 2p^6 3s^2 3p^6 4s^2 3d^10 4p^6 5s^2 4d^10 5p^4;No special;3F;-6611,784051172;0,3312;5;1;5;0;2;[1, 3, 1, 4, 4, 3, 2, 4, 4, 2, 3, 2, 2, 2];[85.845242, 64.575316, 53.318205, 38.055728, 23.183837, 23.181322, 20.472540, 14.954391, 11.061281, 4.106440, 2.453937, 2.078816, 1.341043, 0.848330];[-0.004153403811, 0.003894178465, 0.036718782355, -0.005120725888, 0.092540761510, -0.050357316529, -0.066963577864, 0.327331184141, 0.352687609050, -0.731411738312, 1.483884369259, -1.984593610664, 1.712595653471, 0.047786700537]
Tellurium;Te;Metaloid;sp2;52;0;52;1s^2 2s^2 2p^6 3s^2 3p^6 4s^2 3d^10 4p^6 5s^2 4d^10 5p^4;No special;3F;-6611,784051172;0,3312;5;1;2;1;6;[2, 3, 3, 2, 3, 3, 3, 3, 2, 2, 2, 2, 2];[64.520612, 57.342579, 38.066026, 26.860842, 21.909185, 12.422323, 10.518869, 4.865646, 3.990216, 2.979535, 1.573641, 1.082552, 0.848330];[0.035490901832, 0.039326067922, 0.228102363623, -2.246671257234, -0.567433362028, -0.002191558473, -0.008764274300, -0.013916286076, 0.019231923766, -0.000835031053, -0.000372322441, 0.000353951268, -0.000146234538]
Tellurium;Te;Metaloid;sp2;52;0;52;1s^2 2s^2 2p^6 3s^2 3p^6 4s^2 3d^10 4p^6 5s^2 4d^10 5p^4;No special;3F;-6611,784051172;0,3312;5;1;3;1;6;[2, 3, 3, 2, 3, 3, 3, 3, 2, 2, 2, 2, 2];[64.520612, 57.342579, 38.066026, 26.860842, 21.909185, 12.422323, 10.518869, 4.865646, 3.990216, 2.979535, 1.573641, 1.082552, 0.848330];[0.056531528825, 0.061042019237, 0.295185069515, -1.404336560353, -0.337822602621, 1.720823617416, 0.849703496874, -0.547399720268, 0.855374555527, -0.097597224362, 0.008611916038, -0.004743926785, 0.001534115426]
Tellurium;Te;Metaloid;sp2;52;0;52;1s^2 2s^2 2p^6 3s^2 3p^6 4s^2 3d^10 4p^6 5s^2 4d^10 5p^4;No special;3F;-6611,784051172;0,3312;5;1;4;1;6;[2, 3, 3, 2, 3, 3, 3, 3, 2, 2, 2, 2, 2];[64.520612, 57.342579, 38.066026, 26.860842, 21.909185, 12.422323, 10.518869, 4.865646, 3.990216, 2.979535, 1.573641, 1.082552, 0.848330];[-0.041850022153, -0.044764669998, -0.215585471038, 0.743994542279, 0.044704657500, -0.332755343190, -1.904326651599, 1.391357938951, 1.322165487544, 0.581627420240, -0.004052680779, 0.007834692942, -0.001802334553]
Tellurium;Te;Metaloid;sp2;52;0;52;1s^2 2s^2 2p^6 3s^2 3p^6 4s^2 3d^10 4p^6 5s^2 4d^10 5p^4;No special;3F;-6611,784051172;0,3312;5;1;5;1;4;[2, 3, 3, 2, 3, 3, 3, 3, 2, 2, 2, 2, 2];[64.520612, 57.342579, 38.066026, 26.860842, 21.909185, 12.422323, 10.518869, 4.865646, 3.990216, 2.979535, 1.573641, 1.082552, 0.848330];[0.010752600000, 0.011489600000, 0.055273000000, -0.176944000000, 0.002192000000, 0.047100200000, 0.563119200000, -0.076427000000, -0.219974800000, -1.256016600000, 0.520448000000, 1.491857600000, 0.529826200000]
Tellurium;Te;Metaloid;sp2;52;0;52;1s^2 2s^2 2p^6 3s^2 3p^6 4s^2 3d^10 4p^6 5s^2 4d^10 5p^4;No special;3F;-6611,784051172;0,3312;5;1;3;2;10;[3, 4, 3, 3, 3, 3, 3, 3, 3, 3, 3];[57.659379, 44.352216, 24.129056, 19.832277, 12.290430, 9.774302, 8.292981, 4.494608, 3.020391, 1.937052, 0.848330];[0.002255336427, 0.011063860850, -0.057109153404, 0.551426277953, 1.794736455779, 0.473415734126, 0.550510482342, 0.008580207975, -0.001552994559, 0.000168865627, -0.000029092954]
Tellurium;Te;Metaloid;sp2;52;0;52;1s^2 2s^2 2p^6 3s^2 3p^6 4s^2 3d^10 4p^6 5s^2 4d^10 5p^4;No special;3F;-6611,784051172;0,3312;5;1;4;2;10;[3, 4, 3, 3, 3, 3, 3, 3, 3, 3, 3];[57.659379, 44.352216, 24.129056, 19.832277, 12.290430, 9.774302, 8.292981, 4.494608, 3.020391, 1.937052, 0.848330];[-0.001387923665, -0.007069271709, 0.072190055565, -0.322868549103, -0.265412493840, -1.618174793585, 0.774748223681, 2.082007877717, 1.294510299194, 0.110800517113, 0.000580594178]
Iodine;I;Non metal;sp3;53;0;53;1s^2 2s^2 2p^6 3s^2 3p^6 4s^2 3d^10 4p^6 5s^2 4d^10 5p^5;No special;6D;-6917,980888325;0,3838;5;1;1;0;2;[1, 3, 1, 4, 3, 4, 2, 4, 4, 2, 3, 2, 2, 2];[90.775507, 67.802436, 55.080861, 39.986811, 23.497728, 23.479689, 19.940176, 15.302284, 11.327208, 4.191130, 2.668132, 2.302372, 1.436633, 0.897975];[0.029827178244, -0.033331882294, -1.384520310153, 0.042890127498, 0.112315426910, 0.010586095621, -0.191713194678, 0.002090066224, -0.000709086680, 0.000566251110, 0.000760281211, -0.001069852560, -0.000014283557, 0.000006505382]
Iodine;I;Non metal;sp3;53;0;53;1s^2 2s^2 2p^6 3s^2 3p^6 4s^2 3d^10 4p^6 5s^2 4d^10 5p^5;No special;6D;-6917,980888325;0,3838;5;1;2;0;2;[1, 3, 1, 4, 3, 4, 2, 4, 4, 2, 3, 2, 2, 2];[90.775507, 67.802436, 55.080861, 39.986811, 23.497728, 23.479689, 19.940176, 15.302284, 11.327208, 4.191130, 2.668132, 2.302372, 1.436633, 0.897975];[-0.061725755093, 0.061366120584, 0.559690007973, -0.160541665022, -0.048288322087, 0.210635937828, -1.503003122409, 0.000309288506, -0.000456366717, 0.001124582625, 0.001130239479, -0.001648831592, -0.000005374012, 0.000005091169]
Iodine;I;Non metal;sp3;53;0;53;1s^2 2s^2 2p^6 3s^2 3p^6 4s^2 3d^10 4p^6 5s^2 4d^10 5p^5;No special;6D;-6917,980888325;0,3838;5;1;3;0;2;[1, 3, 1, 4, 3, 4, 2, 4, 4, 2, 3, 2, 2, 2];[90.775507, 67.802436, 55.080861, 39.986811, 23.497728, 23.479689, 19.940176, 15.302284, 11.327208, 4.191130, 2.668132, 2.302372, 1.436633, 0.897975];[0.027435036003, -0.028028440014, -0.249200127461, 0.054600947166, 0.319597274433, -0.373954269759, 0.669219717008, -1.105283700842, -0.413028000538, -0.018516863858, -0.010280201228, 0.016268122872, -0.000354401919, 0.000053740115]
Iodine;I;Non metal;sp3;53;0;53;1s^2 2s^2 2p^6 3s^2 3p^6 4s^2 3d^10 4p^6 5s^2 4d^10 5p^5;No special;6D;-6917,980888325;0,3838;5;1;4;0;2;[1, 3, 1, 4, 3, 4, 2, 4, 4, 2, 3, 2, 2, 2];[90.775507, 67.802436, 55.080861, 39.986811, 23.497728, 23.479689, 19.940176, 15.302284, 11.327208, 4.191130, 2.668132, 2.302372, 1.436633, 0.897975];[0.011720012055, -0.012223330662, -0.110997097027, 0.015275062109, 0.166523929812, -0.293435596321, 0.230642109988, -0.906128490134, -0.932292996673, 2.808010123546, 0.732815910958, -1.130302835816, 0.025402528271, -0.002157665632]
Iodine;I;Non metal;sp3;53;0;53;1s^2 2s^2 2p^6 3s^2 3p^6 4s^2 3d^10 4p^6 5s^2 4d^10 5p^5;No special;6D;-6917,980888325;0,3838;5;1;5;0;2;[1, 3, 1, 4, 3, 4, 2, 4, 4, 2, 3, 2, 2, 2];[90.775507, 67.802436, 55.080861, 39.986811, 23.497728, 23.479689, 19.940176, 15.302284, 11.327208, 4.191130, 2.668132, 2.302372, 1.436633, 0.897975];[-0.004028670175, 0.003998264584, 0.037838273811, -0.007481472588, -0.046378568093, 0.099189686574, -0.075204907399, 0.350604189630, 0.374317156959, -0.696041832853, 1.613115487432, -2.183641199720, 1.709609258691, 0.041685217543]
Iodine;I;Non metal;sp3;53;0;53;1s^2 2s^2 2p^6 3s^2 3p^6 4s^2 3d^10 4p^6 5s^2 4d^10 5p^5;No special;6D;-6917,980888325;0,3838;5;1;2;1;6;[2, 3, 3, 2, 3, 3, 3, 3, 2, 2, 2, 2, 2];[65.960053, 58.378207, 38.587026, 27.259158, 22.203480, 12.897653, 11.549105, 5.203779, 4.277522, 3.458100, 1.408252, 0.963088, 0.897975];[0.034385692060, 0.039503410980, 0.228350251985, -2.268716175021, -0.545651764388, 0.014956584369, -0.024038312540, -0.017542265742, 0.025569243629, -0.002106071281, -0.000319413462, 0.000917333909, -0.000702513658]
Iodine;I;Non metal;sp3;53;0;53;1s^2 2s^2 2p^6 3s^2 3p^6 4s^2 3d^10 4p^6 5s^2 4d^10 5p^5;No special;6D;-6917,980888325;0,3838;5;1;3;1;6;[2, 3, 3, 2, 3, 3, 3, 3, 2, 2, 2, 2, 2];[65.960053, 58.378207, 38.587026, 27.259158, 22.203480, 12.897653, 11.549105, 5.203779, 4.277522, 3.458100, 1.408252, 0.963088, 0.897975];[0.057706304105, 0.064696412984, 0.307413167260, -1.445013766818, -0.333266306750, 1.143585437846, 1.329492401262, -0.727786268651, 1.206475352145, -0.176712313769, 0.005145888052, -0.010129619882, 0.007304623362]
Iodine;I;Non metal;sp3;53;0;53;1s^2 2s^2 2p^6 3s^2 3p^6 4s^2 3d^10 4p^6 5s^2 4d^10 5p^5;No special;6D;-6917,980888325;0,3838;5;1;4;1;6;[2, 3, 3, 2, 3, 3, 3, 3, 2, 2, 2, 2, 2];[65.960053, 58.378207, 38.587026, 27.259158, 22.203480, 12.897653, 11.549105, 5.203779, 4.277522, 3.458100, 1.408252, 0.963088, 0.897975];[-0.045423582739, -0.050458019007, -0.238356907483, 0.808188319968, 0.045351077843, 0.549644432669, -2.491797329621, 2.280584442723, -0.585583101226, 1.354818900458, 0.008670213894, 0.002320646582, -0.000814455339]
Iodine;I;Non metal;sp3;53;0;53;1s^2 2s^2 2p^6 3s^2 3p^6 4s^2 3d^10 4p^6 5s^2 4d^10 5p^5;No special;6D;-6917,980888325;0,3838;5;1;5;1;5;[2, 3, 3, 2, 3, 3, 3, 3, 2, 2, 2, 2, 2];[65.960053, 58.378207, 38.587026, 27.259158, 22.203480, 12.897653, 11.549105, 5.203779, 4.277522, 3.458100, 1.408252, 0.963088, 0.897975];[0.014582740922, 0.016159168846, 0.076384529325, -0.234745099560, 0.008844543278, -0.259681729645, 0.905163000573, -0.248759655608, 0.617874104858, -2.074656739724, 1.487362876919, 1.626201902889, -0.297751681389]
Iodine;I;Non metal;sp3;53;0;53;1s^2 2s^2 2p^6 3s^2 3p^6 4s^2 3d^10 4p^6 5s^2 4d^10 5p^5;No special;6D;-6917,980888325;0,3838;5;1;3;2;10;[3, 4, 3, 3, 3, 3, 3, 3, 3, 3, 3];[58.400845, 45.117174, 24.132009, 20.588554, 12.624386, 10.217388, 8.680013, 4.627159, 3.093797, 1.795536, 0.897975];[0.002315735931, 0.011047733234, -0.093285293608, 0.570633003777, 1.836454803811, 0.343469523148, 0.651637275865, 0.008280740281, -0.001594736624, 0.000142934950, -0.000038263560]
Iodine;I;Non metal;sp3;53;0;53;1s^2 2s^2 2p^6 3s^2 3p^6 4s^2 3d^10 4p^6 5s^2 4d^10 5p^5;No special;6D;-6917,980888325;0,3838;5;1;4;2;10;[3, 4, 3, 3, 3, 3, 3, 3, 3, 3, 3];[58.400845, 45.117174, 24.132009, 20.588554, 12.624386, 10.217388, 8.680013, 4.627159, 3.093797, 1.795536, 0.897975];[-0.001436938969, -0.007082869503, 0.104545215673, -0.357138152106, -0.230524981782, -1.674997444632, 0.738677703550, 2.278022607166, 1.172335385566, 0.052471356987, -0.000594824428]
Xenon;Xe;Noble gas;sp3;54;0;54;1s^2 2s^2 2p^6 3s^2 3p^6 4s^2 3d^10 4p^6 5s^2 4d^10 5p^6;Noble gas;7S;-7232,138355835;0,446;5;1;1;0;2;[1, 3, 1, 4, 3, 4, 2, 4, 4, 2, 4, 3, 2, 2];[91.946915, 68.927732, 56.137679, 40.832514, 24.369639, 24.363016, 20.633849, 15.760476, 11.686818, 4.107994, 3.311303, 2.975274, 1.535005, 0.956336];[0.030909334462, -0.033403441501, -1.385802294748, 0.041850680530, 0.102699906057, 0.013057150979, -0.183635489653, 0.001836356311, -0.000617869905, 0.000314238254, 0.000400929545, -0.000531320035, -0.000021920310, 0.000005939697]
Xenon;Xe;Noble gas;sp3;54;0;54;1s^2 2s^2 2p^6 3s^2 3p^6 4s^2 3d^10 4p^6 5s^2 4d^10 5p^6;Noble gas;7S;-7232,138355835;0,446;5;1;2;0;2;[1, 3, 1, 4, 3, 4, 2, 4, 4, 2, 4, 3, 2, 2];[91.946915, 68.927732, 56.137679, 40.832514, 24.369639, 24.363016, 20.633849, 15.760476, 11.686818, 4.107994, 3.311303, 2.975274, 1.535005, 0.956336];[-0.063252398633, 0.061046791162, 0.562107040372, -0.156643951023, -0.100855488729, 0.193442212180, -1.442992666946, -0.000497661753, -0.000316925259, 0.000845275446, 0.000762826796, -0.001067306976, -0.000027718586, 0.000006788225]
Xenon;Xe;Noble gas;sp3;54;0;54;1s^2 2s^2 2p^6 3s^2 3p^6 4s^2 3d^10 4p^6 5s^2 4d^10 5p^6;Noble gas;7S;-7232,138355835;0,446;5;1;3;0;2;[1, 3, 1, 4, 3, 4, 2, 4, 4, 2, 4, 3, 2, 2];[91.946915, 68.927732, 56.137679, 40.832514, 24.369639, 24.363016, 20.633849, 15.760476, 11.686818, 4.107994, 3.311303, 2.975274, 1.535005, 0.956336];[0.027937647503, -0.027734990700, -0.250650544890, 0.050923709061, 0.350023089278, -0.346055795971, 0.636936756913, -1.100445676245, -0.432991746291, -0.017978755597, -0.009890302548, 0.015128691005, -0.000109742972, 0.000030547013]
Xenon;Xe;Noble gas;sp3;54;0;54;1s^2 2s^2 2p^6 3s^2 3p^6 4s^2 3d^10 4p^6 5s^2 4d^10 5p^6;Noble gas;7S;-7232,138355835;0,446;5;1;4;0;2;[1, 3, 1, 4, 3, 4, 2, 4, 4, 2, 4, 3, 2, 2];[91.946915, 68.927732, 56.137679, 40.832514, 24.369639, 24.363016, 20.633849, 15.760476, 11.686818, 4.107994, 3.311303, 2.975274, 1.535005, 0.956336];[0.011911213729, -0.012105526673, -0.112574935099, 0.012386955171, 0.191995895969, -0.283947637531, 0.216979675605, -0.905688386873, -0.953300714878, 2.843104257361, 0.925259546942, -1.405198375177, 0.019106025228, -0.001727886131]
Xenon;Xe;Noble gas;sp3;54;0;54;1s^2 2s^2 2p^6 3s^2 3p^6 4s^2 3d^10 4p^6 5s^2 4d^10 5p^6;Noble gas;7S;-7232,138355835;0,446;5;1;5;0;2;[1, 3, 1, 4, 3, 4, 2, 4, 4, 2, 4, 3, 2, 2];[91.946915, 68.927732, 56.137679, 40.832514, 24.369639, 24.363016, 20.633849, 15.760476, 11.686818, 4.107994, 3.311303, 2.975274, 1.535005, 0.956336];[-0.004220013270, 0.004121725428, 0.039644648794, -0.006206559061, -0.058817707745, 0.101257549645, -0.072589319415, 0.361460682885, 0.400198255100, -1.384829740081, 0.613215304303, -0.650034212978, 1.716204019375, 0.041888722875]
Xenon;Xe;Noble gas;sp3;54;0;54;1s^2 2s^2 2p^6 3s^2 3p^6 4s^2 3d^10 4p^6 5s^2 4d^10 5p^6;Noble gas;7S;-7232,138355835;0,446;5;1;2;1;6;[2, 3, 3, 2, 3, 3, 3, 3, 2, 2, 2, 2, 2];[66.836641, 59.325786, 39.440533, 27.876421, 22.662415, 13.533766, 12.290050, 5.472844, 4.492251, 3.729958, 1.571562, 1.115472, 0.956336];[0.038007017696, 0.042419773468, 0.238003936011, -2.280891608736, -0.550713145044, 0.029055112482, -0.036758512774, -0.020020169566, 0.029778446803, -0.002943061926, -0.000416903154, 0.000604289120, -0.000328966472]
Xenon;Xe;Noble gas;sp3;54;0;54;1s^2 2s^2 2p^6 3s^2 3p^6 4s^2 3d^10 4p^6 5s^2 4d^10 5p^6;Noble gas;7S;-7232,138355835;0,446;5;1;3;1;6;[2, 3, 3, 2, 3, 3, 3, 3, 2, 2, 2, 2, 2];[66.836641, 59.325786, 39.440533, 27.876421, 22.662415, 13.533766, 12.290050, 5.472844, 4.492251, 3.729958, 1.571562, 1.115472, 0.956336];[0.058843357244, 0.064160219680, 0.303296064900, -1.444245116936, -0.352335339449, 0.449985962688, 1.967317239926, -0.840135300041, 1.451543616574, -0.254299901371, 0.005618639572, -0.005405778913, 0.002574658669]