Element name;Symbol;clasificacion;Possible hybridization;Z;Q;N;Complete electronic configuration;Special configuration;Config;Energy;Ionization;Valence_n;Valence_l;n;l;mz;N_list;A_list;C_list
Uranium;U;Actinide;Likely without hybridisation;92;0;92;1s^2 2s^2 2p^6 3s^2 3p^6 4s^2 3d^10 4p^6 5s^2 4d^10 5p^6 6s^2 4f^14 5d^10 6p^6 7s^2 5f^4;No special;5D;-25664,33807536;0,2224;6;2;7;0;2;[1, 1, 2, 2, 3, 3, 3, 4, 3, 3, 3, 3, 3, 3, 3];[105.948569, 89.207514, 73.824657, 43.135437, 38.435041, 27.065952, 21.462052, 11.698336, 11.694677, 6.183263, 5.092883, 2.598643, 1.915613, 0.863923, 0.624455];[-0.000791393910, 0.008105423611, 0.005741424221, -0.026353869735, -0.031150457874, 0.014727902881, 0.128948841145, -0.155640566500, -0.190661019788, 0.181419558422, 0.389555449515, -0.506153115092, -0.330850030327, 0.892229174979, 0.717692311122]
Uranium;U;Actinide;Likely without hybridisation;92;0;92;1s^2 2s^2 2p^6 3s^2 3p^6 4s^2 3d^10 4p^6 5s^2 4d^10 5p^6 6s^2 4f^14 5d^10 6p^6 7s^2 5f^4;No special;5D;-25664,33807536;0,2224;6;2;2;1;6;[2, 2, 3, 3, 4, 4, 3, 3, 3, 3, 3, 3];[87.226042, 49.213004, 44.065058, 26.877372, 26.873584, 14.962805, 14.943929, 10.636528, 6.102765, 4.908426, 2.276364, 1.544958];[-0.012553389983, -1.832747907284, -0.641028281350, -0.081989565619, 0.050856061091, 0.020680307051, -0.024791285687, -0.008150922068, 0.001732524095, -0.000912189980, 0.000094795253, -0.000037722142]
Uranium;U;Actinide;Likely without hybridisation;92;0;92;1s^2 2s^2 2p^6 3s^2 3p^6 4s^2 3d^10 4p^6 5s^2 4d^10 5p^6 6s^2 4f^14 5d^10 6p^6 7s^2 5f^4;No special;5D;-25664,33807536;0,2224;6;2;3;1;6;[2, 2, 3, 3, 4, 4, 3, 3, 3, 3, 3, 3];[87.226042, 49.213004, 44.065058, 26.877372, 26.873584, 14.962805, 14.943929, 10.636528, 6.102765, 4.908426, 2.276364, 1.544958];[-0.003991688485, -0.949928778782, -0.614267360961, 1.647323983245, 0.891819778562, -0.353890765436, 0.720754273498, 0.077211101029, -0.012011072954, 0.005383488557, -0.000466627796, 0.000180037496]
Uranium;U;Actinide;Likely without hybridisation;92;0;92;1s^2 2s^2 2p^6 3s^2 3p^6 4s^2 3d^10 4p^6 5s^2 4d^10 5p^6 6s^2 4f^14 5d^10 6p^6 7s^2 5f^4;No special;5D;-25664,33807536;0,2224;6;2;4;1;6;[2, 2, 3, 3, 4, 4, 3, 3, 3, 3, 3, 3];[87.226042, 49.213004, 44.065058, 26.877372, 26.873584, 14.962805, 14.943929, 10.636528, 6.102765, 4.908426, 2.276364, 1.544958];[0.001300189155, 0.494648978862, 0.334652717945, -0.974083931982, -0.950755971468, 1.874296397250, -1.073366650237, 1.943737961764, 0.046925854798, -0.012471332076, 0.000550400345, -0.000221678822]
Uranium;U;Actinide;Likely without hybridisation;92;0;92;1s^2 2s^2 2p^6 3s^2 3p^6 4s^2 3d^10 4p^6 5s^2 4d^10 5p^6 6s^2 4f^14 5d^10 6p^6 7s^2 5f^4;No special;5D;-25664,33807536;0,2224;6;2;5;1;6;[2, 2, 3, 3, 4, 4, 3, 3, 3, 3, 3, 3];[87.226042, 49.213004, 44.065058, 26.877372, 26.873584, 14.962805, 14.943929, 10.636528, 6.102765, 4.908426, 2.276364, 1.544958];[-0.000378201216, -0.237006258838, -0.156272301661, 0.492722700128, 0.595717620088, -0.305542981841, 0.977566861447, -3.764046625288, 2.099552453793, 1.772221995536, 0.025942055968, -0.005984103442]
Uranium;U;Actinide;Likely without hybridisation;92;0;92;1s^2 2s^2 2p^6 3s^2 3p^6 4s^2 3d^10 4p^6 5s^2 4d^10 5p^6 6s^2 4f^14 5d^10 6p^6 7s^2 5f^4;No special;5D;-25664,33807536;0,2224;6;2;6;1;6;[2, 2, 3, 3, 4, 4, 3, 3, 3, 3, 3, 3];[87.226042, 49.213004, 44.065058, 26.877372, 26.873584, 14.962805, 14.943929, 10.636528, 6.102765, 4.908426, 2.276364, 1.544958];[0.000254501984, 0.091785320050, 0.062995732256, -0.193043306833, -0.222119484927, 0.170565074310, -0.474372347720, 1.637277890963, -0.471421447427, -2.059205438545, 2.546779801132, 0.633214409070]
Uranium;U;Actinide;Likely without hybridisation;92;0;92;1s^2 2s^2 2p^6 3s^2 3p^6 4s^2 3d^10 4p^6 5s^2 4d^10 5p^6 6s^2 4f^14 5d^10 6p^6 7s^2 5f^4;No special;5D;-25664,33807536;0,2224;6;2;3;2;10;[3, 3, 4, 4, 4, 4, 4, 4, 4, 4, 4];[59.265068, 33.881203, 28.053792, 18.841775, 14.814453, 11.425834, 7.475720, 5.271222, 3.534011, 2.016503, 1.175780];[0.008586216303, 1.408142952179, 1.581408256141, 0.505597285191, -0.159944209318, 0.054526837467, -0.012751568437, 0.005287328248, -0.001600112496, 0.000379473319, -0.000106252529]
Uranium;U;Actinide;Likely without hybridisation;92;0;92;1s^2 2s^2 2p^6 3s^2 3p^6 4s^2 3d^10 4p^6 5s^2 4d^10 5p^6 6s^2 4f^14 5d^10 6p^6 7s^2 5f^4;No special;5D;-25664,33807536;0,2224;6;2;4;2;10;[3, 3, 4, 4, 4, 4, 4, 4, 4, 4, 4];[59.265068, 33.881203, 28.053792, 18.841775, 14.814453, 11.425834, 7.475720, 5.271222, 3.534011, 2.016503, 1.175780];[-0.003200541220, -0.786224129309, -1.002392686742, 0.107344463858, 1.695869742101, 1.684698363810, 0.140731475166, -0.023380616108, 0.005079566606, -0.001168145368, 0.000273537018]
Uranium;U;Actinide;Likely without hybridisation;92;0;92;1s^2 2s^2 2p^6 3s^2 3p^6 4s^2 3d^10 4p^6 5s^2 4d^10 5p^6 6s^2 4f^14 5d^10 6p^6 7s^2 5f^4;No special;5D;-25664,33807536;0,2224;6;2;5;2;10;[3, 3, 4, 4, 4, 4, 4, 4, 4, 4, 4];[59.265068, 33.881203, 28.053792, 18.841775, 14.814453, 11.425834, 7.475720, 5.271222, 3.534011, 2.016503, 1.175780];[0.001677904526, 0.346698208639, 0.473023295469, -0.189484626081, -0.636440318113, -1.609374491084, 1.282676739962, 2.377473077301, 0.400655203671, -0.001681699260, 0.000100876657]
Uranium;U;Actinide;Likely without hybridisation;92;0;92;1s^2 2s^2 2p^6 3s^2 3p^6 4s^2 3d^10 4p^6 5s^2 4d^10 5p^6 6s^2 4f^14 5d^10 6p^6 7s^2 5f^4;No special;5D;-25664,33807536;0,2224;6;2;6;2;1;[3, 3, 4, 4, 4, 4, 4, 4, 4, 4, 4];[59.265068, 33.881203, 28.053792, 18.841775, 14.814453, 11.425834, 7.475720, 5.271222, 3.534011, 2.016503, 1.175780];[-0.000076500000, -0.032860300000, -0.042788900000, 0.007606700000, 0.087385200000, 0.130378800000, -0.093543200000, -0.384818400000, 0.091313100000, 0.676232100000, 0.405706700000]
Uranium;U;Actinide;Likely without hybridisation;92;0;92;1s^2 2s^2 2p^6 3s^2 3p^6 4s^2 3d^10 4p^6 5s^2 4d^10 5p^6 6s^2 4f^14 5d^10 6p^6 7s^2 5f^4;No special;5D;-25664,33807536;0,2224;6;2;4;3;14;[4, 4, 4, 5, 4, 4, 4, 4];[32.058387, 19.789922, 12.960840, 8.199212, 7.637119, 4.494502, 2.762193, 1.697246];[0.064828704215, 0.948668419655, 2.024906402917, -1.007924299358, 2.003037163823, 0.002717939926, 0.000004489989, 0.000099902252]
Uranium;U;Actinide;Likely without hybridisation;92;0;92;1s^2 2s^2 2p^6 3s^2 3p^6 4s^2 3d^10 4p^6 5s^2 4d^10 5p^6 6s^2 4f^14 5d^10 6p^6 7s^2 5f^4;No special;5D;-25664,33807536;0,2224;6;2;5;3;3;[4, 4, 4, 5, 4, 4, 4, 4];[32.058387, 19.789922, 12.960840, 8.199212, 7.637119, 4.494502, 2.762193, 1.697246];[-0.009101234173, -0.156315506922, -0.290703077415, 0.431290523774, -0.361599381071, 0.943062866783, 0.709672138155, 0.178336800890]
Neptunium;Np;Actinide;Likely without hybridisation;93;0;93;1s^2 2s^2 2p^6 3s^2 3p^6 4s^2 3d^10 4p^6 5s^2 4d^10 5p^6 6s^2 4f^14 5d^10 6p^6 7s^2 5f^5;No special;4F;-26331,454763705;0,2276;6;2;1;0;2;[1, 1, 2, 2, 3, 3, 3, 4, 3, 3, 3, 3, 3, 3, 3];[106.891398, 90.150737, 74.606109, 43.599769, 38.823091, 27.355986, 21.621181, 11.948682, 11.945786, 6.351323, 5.241219, 2.630257, 1.923696, 0.878188, 0.631665];[0.190058564810, 1.227393405199, -0.004148878328, 0.004833640535, -0.004010568242, 0.003857408913, -0.002818951894, -0.001188646499, 0.001545876845, 0.000625930923, -0.000411111883, 0.000078488853, -0.000044830570, 0.000012162237, -0.000006222540]
Neptunium;Np;Actinide;Likely without hybridisation;93;0;93;1s^2 2s^2 2p^6 3s^2 3p^6 4s^2 3d^10 4p^6 5s^2 4d^10 5p^6 6s^2 4f^14 5d^10 6p^6 7s^2 5f^5;No special;4F;-26331,454763705;0,2276;6;2;2;0;2;[1, 1, 2, 2, 3, 3, 3, 4, 3, 3, 3, 3, 3, 3, 3];[106.891398, 90.150737, 74.606109, 43.599769, 38.823091, 27.355986, 21.621181, 11.948682, 11.945786, 6.351323, 5.241219, 2.630257, 1.923696, 0.878188, 0.631665];[0.052057766916, -0.561454380813, -0.360093986898, 1.678408454814, 0.134877365820, -0.003468358762, 0.002341654817, 0.001010031326, -0.001602021123, -0.000334602929, 0.000225567063, -0.000043416356, 0.000023758788, -0.000006363961, 0.000003252691]
Neptunium;Np;Actinide;Likely without hybridisation;93;0;93;1s^2 2s^2 2p^6 3s^2 3p^6 4s^2 3d^10 4p^6 5s^2 4d^10 5p^6 6s^2 4f^14 5d^10 6p^6 7s^2 5f^5;No special;4F;-26331,454763705;0,2276;6;2;3;0;2;[1, 1, 2, 2, 3, 3, 3, 4, 3, 3, 3, 3, 3, 3, 3];[106.891398, 90.150737, 74.606109, 43.599769, 38.823091, 27.355986, 21.621181, 11.948682, 11.945786, 6.351323, 5.241219, 2.630257, 1.923696, 0.878188, 0.631665];[-0.014910477852, 0.257661367204, 0.204711090109, -0.903732105252, -0.740963195291, 1.201805049266, 0.939588783020, -0.006797700330, 0.019074346844, -0.000991787971, 0.000503601450, -0.000089802561, 0.000065195245, -0.000018809040, 0.000009758074]
Neptunium;Np;Actinide;Likely without hybridisation;93;0;93;1s^2 2s^2 2p^6 3s^2 3p^6 4s^2 3d^10 4p^6 5s^2 4d^10 5p^6 6s^2 4f^14 5d^10 6p^6 7s^2 5f^5;No special;4F;-26331,454763705;0,2276;6;2;4;0;2;[1, 1, 2, 2, 3, 3, 3, 4, 3, 3, 3, 3, 3, 3, 3];[106.891398, 90.150737, 74.606109, 43.599769, 38.823091, 27.355986, 21.621181, 11.948682, 11.945786, 6.351323, 5.241219, 2.630257, 1.923696, 0.878188, 0.631665];[0.007944768951, -0.134128398318, -0.107557305380, 0.474482226626, 0.479419104751, -0.317092419371, -1.890558308261, -0.116495276515, 2.380958639903, 0.050816935937, -0.017790382351, 0.000887136168, -0.000474327229, 0.000077923167, -0.000036062446]
Neptunium;Np;Actinide;Likely without hybridisation;93;0;93;1s^2 2s^2 2p^6 3s^2 3p^6 4s^2 3d^10 4p^6 5s^2 4d^10 5p^6 6s^2 4f^14 5d^10 6p^6 7s^2 5f^5;No special;4F;-26331,454763705;0,2276;6;2;5;0;2;[1, 1, 2, 2, 3, 3, 3, 4, 3, 3, 3, 3, 3, 3, 3];[106.891398, 90.150737, 74.606109, 43.599769, 38.823091, 27.355986, 21.621181, 11.948682, 11.945786, 6.351323, 5.241219, 2.630257, 1.923696, 0.878188, 0.631665];[-0.006374850475, 0.069503081158, 0.050353073888, -0.229432957393, -0.265938759185, 0.151410370892, 1.070726826760, -0.944189078317, -1.521747250386, 1.749346962738, 0.677530343007, 0.009447370861, -0.001424254479, 0.000214394776, -0.000093479516]
Neptunium;Np;Actinide;Likely without hybridisation;93;0;93;1s^2 2s^2 2p^6 3s^2 3p^6 4s^2 3d^10 4p^6 5s^2 4d^10 5p^6 6s^2 4f^14 5d^10 6p^6 7s^2 5f^5;No special;4F;-26331,454763705;0,2276;6;2;6;0;2;[1, 1, 2, 2, 3, 3, 3, 4, 3, 3, 3, 3, 3, 3, 3];[106.891398, 90.150737, 74.606109, 43.599769, 38.823091, 27.355986, 21.621181, 11.948682, 11.945786, 6.351323, 5.241219, 2.630257, 1.923696, 0.878188, 0.631665];[0.002189768280, -0.028565841168, -0.021711855138, 0.097414000025, 0.110465494149, -0.050156781046, -0.478962172349, 0.533826728923, 0.690190524239, -0.597347969554, -1.263053507281, 1.609327092141, 0.364536738804, -0.004788102858, 0.002087520639]
Neptunium;Np;Actinide;Likely without hybridisation;93;0;93;1s^2 2s^2 2p^6 3s^2 3p^6 4s^2 3d^10 4p^6 5s^2 4d^10 5p^6 6s^2 4f^14 5d^10 6p^6 7s^2 5f^5;No special;4F;-26331,454763705;0,2276;6;2;7;0;2;[1, 1, 2, 2, 3, 3, 3, 4, 3, 3, 3, 3, 3, 3, 3];[106.891398, 90.150737, 74.606109, 43.599769, 38.823091, 27.355986, 21.621181, 11.948682, 11.945786, 6.351323, 5.241219, 2.630257, 1.923696, 0.878188, 0.631665];[-0.000812748534, 0.008093827060, 0.005696735072, -0.026207922895, -0.031502314209, 0.017288195115, 0.126601105210, -0.163282693749, -0.183937707091, 0.170400572029, 0.389944923930, -0.502954164014, -0.317816779558, 0.864892992504, 0.744166106167]
Neptunium;Np;Actinide;Likely without hybridisation;93;0;93;1s^2 2s^2 2p^6 3s^2 3p^6 4s^2 3d^10 4p^6 5s^2 4d^10 5p^6 6s^2 4f^14 5d^10 6p^6 7s^2 5f^5;No special;4F;-26331,454763705;0,2276;6;2;2;1;6;[2, 2, 3, 3, 4, 4, 3, 3, 3, 3, 3, 3];[88.714203, 49.950385, 44.755714, 27.391391, 27.389735, 15.204118, 14.501265, 10.837432, 6.297562, 5.026719, 2.313627, 1.567881];[-0.011823686988, -1.818232476017, -0.654184245809, -0.087296875045, 0.053605123429, 0.026559817281, -0.030904967136, -0.008130836252, 0.001732034197, -0.000874712787, 0.000090876069, -0.000036497397]
Neptunium;Np;Actinide;Likely without hybridisation;93;0;93;1s^2 2s^2 2p^6 3s^2 3p^6 4s^2 3d^10 4p^6 5s^2 4d^10 5p^6 6s^2 4f^14 5d^10 6p^6 7s^2 5f^5;No special;4F;-26331,454763705;0,2276;6;2;3;1;6;[2, 2, 3, 3, 4, 4, 3, 3, 3, 3, 3, 3];[88.714203, 49.950385, 44.755714, 27.391391, 27.389735, 15.204118, 14.501265, 10.837432, 6.297562, 5.026719, 2.313627, 1.567881];[-0.003806752009, -0.943024646993, -0.615495045220, 1.572271862475, 0.933456450159, -0.530055863196, 0.920268642333, 0.070297171281, -0.011386453069, 0.004842151324, -0.000419597593, 0.000163136017]
Neptunium;Np;Actinide;Likely without hybridisation;93;0;93;1s^2 2s^2 2p^6 3s^2 3p^6 4s^2 3d^10 4p^6 5s^2 4d^10 5p^6 6s^2 4f^14 5d^10 6p^6 7s^2 5f^5;No special;4F;-26331,454763705;0,2276;6;2;4;1;6;[2, 2, 3, 3, 4, 4, 3, 3, 3, 3, 3, 3];[88.714203, 49.950385, 44.755714, 27.391391, 27.389735, 15.204118, 14.501265, 10.837432, 6.297562, 5.026719, 2.313627, 1.567881];[0.001227929208, 0.492571076713, 0.335317264512, -0.918856266547, -0.964031471027, 2.165605639145, -1.421901116452, 1.974767852877, 0.047229101629, -0.011293127510, 0.000503615091, -0.000206491985]
Neptunium;Np;Actinide;Likely without hybridisation;93;0;93;1s^2 2s^2 2p^6 3s^2 3p^6 4s^2 3d^10 4p^6 5s^2 4d^10 5p^6 6s^2 4f^14 5d^10 6p^6 7s^2 5f^5;No special;4F;-26331,454763705;0,2276;6;2;5;1;6;[2, 2, 3, 3, 4, 4, 3, 3, 3, 3, 3, 3];[88.714203, 49.950385, 44.755714, 27.391391, 27.389735, 15.204118, 14.501265, 10.837432, 6.297562, 5.026719, 2.313627, 1.567881];[-0.000356155809, -0.237578949540, -0.157653323978, 0.465694295459, 0.602070861634, -0.532982758489, 1.305711775043, -3.913218591031, 2.063598108501, 1.859565165937, 0.025657915158, -0.005883919311]
Neptunium;Np;Actinide;Likely without hybridisation;93;0;93;1s^2 2s^2 2p^6 3s^2 3p^6 4s^2 3d^10 4p^6 5s^2 4d^10 5p^6 6s^2 4f^14 5d^10 6p^6 7s^2 5f^5;No special;4F;-26331,454763705;0,2276;6;2;6;1;6;[2, 2, 3, 3, 4, 4, 3, 3, 3, 3, 3, 3];[88.714203, 49.950385, 44.755714, 27.391391, 27.389735, 15.204118, 14.501265, 10.837432, 6.297562, 5.026719, 2.313627, 1.567881];[0.000246173719, 0.091677052603, 0.063361930972, -0.181754588404, -0.223490709285, 0.274209354001, -0.625391718628, 1.707298269903, -0.491554293521, -2.044187861881, 2.528255779901, 0.635893660951]
Neptunium;Np;Actinide;Likely without hybridisation;93;0;93;1s^2 2s^2 2p^6 3s^2 3p^6 4s^2 3d^10 4p^6 5s^2 4d^10 5p^6 6s^2 4f^14 5d^10 6p^6 7s^2 5f^5;No special;4F;-26331,454763705;0,2276;6;2;3;2;10;[3, 3, 4, 4, 4, 4, 4, 4, 4, 4, 4];[60.460372, 34.353800, 28.467124, 19.209070, 14.954731, 11.585351, 7.657167, 5.376603, 3.587342, 2.054373, 1.197641];[0.007929095005, 1.402357565200, 1.581135667807, 0.503445987698, -0.151616983556, 0.054716890354, -0.012888495060, 0.005072293367, -0.001526431427, 0.000366191753, -0.000102774024]
Neptunium;Np;Actinide;Likely without hybridisation;93;0;93;1s^2 2s^2 2p^6 3s^2 3p^6 4s^2 3d^10 4p^6 5s^2 4d^10 5p^6 6s^2 4f^14 5d^10 6p^6 7s^2 5f^5;No special;4F;-26331,454763705;0,2276;6;2;4;2;10;[3, 3, 4, 4, 4, 4, 4, 4, 4, 4, 4];[60.460372, 34.353800, 28.467124, 19.209070, 14.954731, 11.585351, 7.657167, 5.376603, 3.587342, 2.054373, 1.197641];[-0.002945345413, -0.786216539843, -1.008987616802, 0.102011282584, 1.758033796344, 1.628912623607, 0.135899514901, -0.020725884013, 0.004558739475, -0.001054935827, 0.000253930896]
Neptunium;Np;Actinide;Likely without hybridisation;93;0;93;1s^2 2s^2 2p^6 3s^2 3p^6 4s^2 3d^10 4p^6 5s^2 4d^10 5p^6 6s^2 4f^14 5d^10 6p^6 7s^2 5f^5;No special;4F;-26331,454763705;0,2276;6;2;5;2;10;[3, 3, 4, 4, 4, 4, 4, 4, 4, 4, 4];[60.460372, 34.353800, 28.467124, 19.209070, 14.954731, 11.585351, 7.657167, 5.376603, 3.587342, 2.054373, 1.197641];[0.001565643670, 0.350101451857, 0.480776251608, -0.182839099578, -0.677115746973, -1.635376002917, 1.344980250651, 2.378007185998, 0.380840371853, -0.001889777130, 0.000381686914]
Neptunium;Np;Actinide;Likely without hybridisation;93;0;93;1s^2 2s^2 2p^6 3s^2 3p^6 4s^2 3d^10 4p^6 5s^2 4d^10 5p^6 6s^2 4f^14 5d^10 6p^6 7s^2 5f^5;No special;4F;-26331,454763705;0,2276;6;2;6;2;1;[3, 3, 4, 4, 4, 4, 4, 4, 4, 4, 4];[60.460372, 34.353800, 28.467124, 19.209070, 14.954731, 11.585351, 7.657167, 5.376603, 3.587342, 2.054373, 1.197641];[-0.000070200000, -0.033179800000, -0.043588200000, 0.007645100000, 0.090931900000, 0.132971200000, -0.100621500000, -0.386839400000, 0.101547100000, 0.675635100000, 0.401001900000]
Neptunium;Np;Actinide;Likely without hybridisation;93;0;93;1s^2 2s^2 2p^6 3s^2 3p^6 4s^2 3d^10 4p^6 5s^2 4d^10 5p^6 6s^2 4f^14 5d^10 6p^6 7s^2 5f^5;No special;4F;-26331,454763705;0,2276;6;2;4;3;14;[4, 4, 4, 5, 4, 4, 4, 4];[32.467146, 20.059113, 13.102908, 8.251545, 7.711586, 4.587557, 2.847582, 1.776473];[0.064839180855, 0.961791534607, 2.076380009421, -0.933851082237, 1.859804274063, 0.003873363727, -0.000274637652, 0.000170993743]
Neptunium;Np;Actinide;Likely without hybridisation;93;0;93;1s^2 2s^2 2p^6 3s^2 3p^6 4s^2 3d^10 4p^6 5s^2 4d^10 5p^6 6s^2 4f^14 5d^10 6p^6 7s^2 5f^5;No special;4F;-26331,454763705;0,2276;6;2;5;3;4;[4, 4, 4, 5, 4, 4, 4, 4];[32.467146, 20.059113, 13.102908, 8.251545, 7.711586, 4.587557, 2.847582, 1.776473];[-0.010899000000, -0.188423400000, -0.360068000000, 0.502499600000, -0.377888400000, 1.104994000000, 0.783904400000, 0.187227200000]
Plutonium;Pu;Actinide;Likely without hybridisation;94;0;94;1s^2 2s^2 2p^6 3s^2 3p^6 4s^2 3d^10 4p^6 5s^2 4d^10 5p^6 6s^2 4f^14 5d^10 6p^6 7s^2 5f^6;No special;3F;-27008,719247227;0,2228;5;3;1;0;2;[1, 1, 2, 2, 3, 3, 3, 4, 3, 3, 3, 3, 3, 3, 3];[107.536668, 91.001119, 75.300845, 44.082884, 39.184732, 27.656392, 21.755071, 12.225155, 12.224417, 6.549731, 5.344848, 2.619722, 1.934627, 0.814951, 0.595810];[0.203159697831, 1.214778195959, -0.004818367028, 0.004963606761, -0.004123281062, 0.003975354324, -0.002942271317, -0.001256245907, 0.001673297487, 0.000594252539, -0.000369109740, 0.000069720729, -0.000039739401, 0.000010182338, -0.000005656854]
Plutonium;Pu;Actinide;Likely without hybridisation;94;0;94;1s^2 2s^2 2p^6 3s^2 3p^6 4s^2 3d^10 4p^6 5s^2 4d^10 5p^6 6s^2 4f^14 5d^10 6p^6 7s^2 5f^6;No special;3F;-27008,719247227;0,2228;5;3;2;0;2;[1, 1, 2, 2, 3, 3, 3, 4, 3, 3, 3, 3, 3, 3, 3];[107.536668, 91.001119, 75.300845, 44.082884, 39.184732, 27.656392, 21.755071, 12.225155, 12.224417, 6.549731, 5.344848, 2.619722, 1.934627, 0.814951, 0.595810];[0.054383865384, -0.565347852172, -0.360363960267, 1.681958130856, 0.133466122106, -0.004325937866, 0.002748382637, 0.001109733382, -0.001786575993, -0.000334178665, 0.000212556298, -0.000040022244, 0.000021920310, -0.000005515433, 0.000003111270]
Plutonium;Pu;Actinide;Likely without hybridisation;94;0;94;1s^2 2s^2 2p^6 3s^2 3p^6 4s^2 3d^10 4p^6 5s^2 4d^10 5p^6 6s^2 4f^14 5d^10 6p^6 7s^2 5f^6;No special;3F;-27008,719247227;0,2228;5;3;3;0;2;[1, 1, 2, 2, 3, 3, 3, 4, 3, 3, 3, 3, 3, 3, 3];[107.536668, 91.001119, 75.300845, 44.082884, 39.184732, 27.656392, 21.755071, 12.225155, 12.224417, 6.549731, 5.344848, 2.619722, 1.934627, 0.814951, 0.595810];[-0.015385087924, 0.259021557809, 0.205767366219, -0.907766008018, -0.749626384732, 1.241801837237, 0.913880643197, -0.002268539975, 0.011472807525, -0.002157665632, 0.001120339984, -0.000188090404, 0.000118086832, -0.000030405592, 0.000017253405]
Plutonium;Pu;Actinide;Likely without hybridisation;94;0;94;1s^2 2s^2 2p^6 3s^2 3p^6 4s^2 3d^10 4p^6 5s^2 4d^10 5p^6 6s^2 4f^14 5d^10 6p^6 7s^2 5f^6;No special;3F;-27008,719247227;0,2228;5;3;4;0;2;[1, 1, 2, 2, 3, 3, 3, 4, 3, 3, 3, 3, 3, 3, 3];[107.536668, 91.001119, 75.300845, 44.082884, 39.184732, 27.656392, 21.755071, 12.225155, 12.224417, 6.549731, 5.344848, 2.619722, 1.934627, 0.814951, 0.595810];[0.008436066742, -0.135467375718, -0.108105313135, 0.477217739920, 0.489733671368, -0.359810861343, -1.887132517328, -0.065698139568, 2.359142274383, 0.047969134086, -0.014456373877, 0.000617587063, -0.000340259783, 0.000044971991, -0.000022485996]