Element name;Symbol;clasificacion;Possible hybridization;Z;Q;N;Complete electronic configuration;Special configuration;Config;Energy;Ionization;Valence_n;Valence_l;n;l;mz;N_list;A_list;C_list
Plutonium;Pu;Actinide;Likely without hybridisation;94;0;94;1s^2 2s^2 2p^6 3s^2 3p^6 4s^2 3d^10 4p^6 5s^2 4d^10 5p^6 6s^2 4f^14 5d^10 6p^6 7s^2 5f^6;No special;3F;-27008,719247227;0,2228;5;3;5;0;2;[1, 1, 2, 2, 3, 3, 3, 4, 3, 3, 3, 3, 3, 3, 3];[107.536668, 91.001119, 75.300845, 44.082884, 39.184732, 27.656392, 21.755071, 12.225155, 12.224417, 6.549731, 5.344848, 2.619722, 1.934627, 0.814951, 0.595810];[-0.006859501463, 0.070667968869, 0.050598157099, -0.231194501806, -0.273888477883, 0.181092450825, 1.060357812920, -1.022098951996, -1.475740479039, 1.659728249290, 0.783354246823, 0.009502808032, -0.001559453295, 0.000223304321, -0.000111440029]
Plutonium;Pu;Actinide;Likely without hybridisation;94;0;94;1s^2 2s^2 2p^6 3s^2 3p^6 4s^2 3d^10 4p^6 5s^2 4d^10 5p^6 6s^2 4f^14 5d^10 6p^6 7s^2 5f^6;No special;3F;-27008,719247227;0,2228;5;3;6;0;2;[1, 1, 2, 2, 3, 3, 3, 4, 3, 3, 3, 3, 3, 3, 3];[107.536668, 91.001119, 75.300845, 44.082884, 39.184732, 27.656392, 21.755071, 12.225155, 12.224417, 6.549731, 5.344848, 2.619722, 1.934627, 0.814951, 0.595810];[0.002363433705, -0.028373366702, -0.021220415925, 0.095604230929, 0.111363378340, -0.062846802184, -0.459831398384, 0.565704516832, 0.647760440412, -0.622500747711, -1.154077321435, 1.484469146567, 0.426270130650, -0.004661530744, 0.002265852970]
Plutonium;Pu;Actinide;Likely without hybridisation;94;0;94;1s^2 2s^2 2p^6 3s^2 3p^6 4s^2 3d^10 4p^6 5s^2 4d^10 5p^6 6s^2 4f^14 5d^10 6p^6 7s^2 5f^6;No special;3F;-27008,719247227;0,2228;5;3;7;0;2;[1, 1, 2, 2, 3, 3, 3, 4, 3, 3, 3, 3, 3, 3, 3];[107.536668, 91.001119, 75.300845, 44.082884, 39.184732, 27.656392, 21.755071, 12.225155, 12.224417, 6.549731, 5.344848, 2.619722, 1.934627, 0.814951, 0.595810];[-0.000914147647, 0.007761345452, 0.005179981436, -0.024235236397, -0.030668352471, 0.021379939215, 0.112688072184, -0.167721768699, -0.160281025462, 0.184429711989, 0.316878024595, -0.407088869261, -0.331467758811, 0.991875086848, 0.592049618443]
Plutonium;Pu;Actinide;Likely without hybridisation;94;0;94;1s^2 2s^2 2p^6 3s^2 3p^6 4s^2 3d^10 4p^6 5s^2 4d^10 5p^6 6s^2 4f^14 5d^10 6p^6 7s^2 5f^6;No special;3F;-27008,719247227;0,2228;5;3;2;1;6;[2, 2, 3, 3, 4, 4, 3, 3, 3, 3, 3, 3];[90.239526, 50.777857, 45.540763, 27.998986, 27.995154, 15.561206, 14.518508, 11.137490, 6.391201, 5.039168, 2.307997, 1.580052];[-0.011069244148, -1.796434466796, -0.672934109994, -0.096528022090, 0.058835273928, 0.031637119620, -0.037431632555, -0.007639958508, 0.001551261854, -0.000774038759, 0.000089651325, -0.000037232244]
Plutonium;Pu;Actinide;Likely without hybridisation;94;0;94;1s^2 2s^2 2p^6 3s^2 3p^6 4s^2 3d^10 4p^6 5s^2 4d^10 5p^6 6s^2 4f^14 5d^10 6p^6 7s^2 5f^6;No special;3F;-27008,719247227;0,2228;5;3;3;1;6;[2, 2, 3, 3, 4, 4, 3, 3, 3, 3, 3, 3];[90.239526, 50.777857, 45.540763, 27.998986, 27.995154, 15.561206, 14.518508, 11.137490, 6.391201, 5.039168, 2.307997, 1.580052];[-0.003621815534, -0.932228520951, -0.615648873176, 1.460474946074, 0.987474067661, -0.666810630586, 1.115841537223, 0.048878588021, -0.008520060172, 0.003493952169, -0.000341213921, 0.000137416375]
Plutonium;Pu;Actinide;Likely without hybridisation;94;0;94;1s^2 2s^2 2p^6 3s^2 3p^6 4s^2 3d^10 4p^6 5s^2 4d^10 5p^6 6s^2 4f^14 5d^10 6p^6 7s^2 5f^6;No special;3F;-27008,719247227;0,2228;5;3;4;1;6;[2, 2, 3, 3, 4, 4, 3, 3, 3, 3, 3, 3];[90.239526, 50.777857, 45.540763, 27.998986, 27.995154, 15.561206, 14.518508, 11.137490, 6.391201, 5.039168, 2.307997, 1.580052];[0.001169631352, 0.488294267622, 0.335266805023, -0.834534296795, -0.971245953166, 2.354201407452, -1.873318560945, 2.172520303740, 0.049120107710, -0.011003352874, 0.000616046670, -0.000243724229]
Plutonium;Pu;Actinide;Likely without hybridisation;94;0;94;1s^2 2s^2 2p^6 3s^2 3p^6 4s^2 3d^10 4p^6 5s^2 4d^10 5p^6 6s^2 4f^14 5d^10 6p^6 7s^2 5f^6;No special;3F;-27008,719247227;0,2228;5;3;5;1;6;[2, 2, 3, 3, 4, 4, 3, 3, 3, 3, 3, 3];[90.239526, 50.777857, 45.540763, 27.998986, 27.995154, 15.561206, 14.518508, 11.137490, 6.391201, 5.039168, 2.307997, 1.580052];[-0.000311820044, -0.236410297984, -0.157527910103, 0.422930858581, 0.607911914874, -0.627809365004, 1.658003758524, -4.144330642702, 2.204856507733, 1.721769365406, 0.025387001592, -0.006005414002]
Plutonium;Pu;Actinide;Likely without hybridisation;94;0;94;1s^2 2s^2 2p^6 3s^2 3p^6 4s^2 3d^10 4p^6 5s^2 4d^10 5p^6 6s^2 4f^14 5d^10 6p^6 7s^2 5f^6;No special;3F;-27008,719247227;0,2228;5;3;6;1;6;[2, 2, 3, 3, 4, 4, 3, 3, 3, 3, 3, 3];[90.239526, 50.777857, 45.540763, 27.998986, 27.995154, 15.561206, 14.518508, 11.137490, 6.391201, 5.039168, 2.307997, 1.580052];[0.000194489486, 0.088220332678, 0.060635648889, -0.159688849954, -0.222537612826, 0.270005049806, -0.751707250632, 1.809329805547, -0.707892737705, -1.711927070670, 2.324879055639, 0.766546994341]
Plutonium;Pu;Actinide;Likely without hybridisation;94;0;94;1s^2 2s^2 2p^6 3s^2 3p^6 4s^2 3d^10 4p^6 5s^2 4d^10 5p^6 6s^2 4f^14 5d^10 6p^6 7s^2 5f^6;No special;3F;-27008,719247227;0,2228;5;3;3;2;10;[3, 3, 4, 4, 4, 4, 4, 4, 4];[61.400727, 34.750009, 28.815000, 19.517891, 14.876307, 11.601501, 8.051959, 5.509317, 3.624359];[0.007640062827, 1.405983432765, 1.579669319656, 0.486245094594, -0.137666279430, 0.055978006685, -0.012888495060, 0.003250821435, -0.000623601155]
Plutonium;Pu;Actinide;Likely without hybridisation;94;0;94;1s^2 2s^2 2p^6 3s^2 3p^6 4s^2 3d^10 4p^6 5s^2 4d^10 5p^6 6s^2 4f^14 5d^10 6p^6 7s^2 5f^6;No special;3F;-27008,719247227;0,2228;5;3;4;2;10;[3, 3, 4, 4, 4, 4, 4, 4, 4];[61.400727, 34.750009, 28.815000, 19.517891, 14.876307, 11.601501, 8.051959, 5.509317, 3.624359];[-0.002857750321, -0.791391291006, -1.016678276072, 0.141628297110, 1.927063229380, 1.428811915194, 0.123430970315, -0.008237100849, 0.001175102379]
Plutonium;Pu;Actinide;Likely without hybridisation;94;0;94;1s^2 2s^2 2p^6 3s^2 3p^6 4s^2 3d^10 4p^6 5s^2 4d^10 5p^6 6s^2 4f^14 5d^10 6p^6 7s^2 5f^6;No special;3F;-27008,719247227;0,2228;5;3;5;2;10;[3, 3, 4, 4, 4, 4, 4, 4, 4];[61.400727, 34.750009, 28.815000, 19.517891, 14.876307, 11.601501, 8.051959, 5.509317, 3.624359];[0.001522952921, 0.353664390097, 0.486402576021, -0.198357660967, -0.754448614697, -1.667479445723, 1.389754623813, 2.431004429760, 0.403843412008]
Plutonium;Pu;Actinide;Likely without hybridisation;94;0;94;1s^2 2s^2 2p^6 3s^2 3p^6 4s^2 3d^10 4p^6 5s^2 4d^10 5p^6 6s^2 4f^14 5d^10 6p^6 7s^2 5f^6;No special;3F;-27008,719247227;0,2228;5;3;4;3;14;[4, 4, 4, 5, 4, 4, 4, 4];[32.847883, 20.322362, 13.247147, 8.319856, 7.796263, 4.624658, 2.844790, 1.765028];[0.065178175015, 0.975051594220, 2.122049556987, -0.862983343000, 1.725584288616, 0.004944600237, -0.000501007924, 0.000225247775]
Plutonium;Pu;Actinide;Likely without hybridisation;94;0;94;1s^2 2s^2 2p^6 3s^2 3p^6 4s^2 3d^10 4p^6 5s^2 4d^10 5p^6 6s^2 4f^14 5d^10 6p^6 7s^2 5f^6;No special;3F;-27008,719247227;0,2228;5;3;5;3;6;[4, 4, 4, 5, 4, 4, 4, 4];[32.847883, 20.322362, 13.247147, 8.319856, 7.796263, 4.624658, 2.844790, 1.765028];[-0.013436186086, -0.233488056721, -0.453343723227, 0.621395131163, -0.408507528128, 1.344612611546, 0.932498944619, 0.242439227088]
Americium;Am;Actinide;Likely without hybridisation;95;0;95;1s^2 2s^2 2p^6 3s^2 3p^6 4s^2 3d^10 4p^6 5s^2 4d^10 5p^6 6s^2 4f^14 5d^10 6p^6 7s^2 5f^7;Half orbital;2S;-27695,887018041;0,2206;5;3;1;0;2;[1, 1, 2, 2, 3, 3, 3, 4, 3, 3, 3, 3, 3, 3, 3];[108.514351, 91.949998, 76.105473, 44.549019, 39.617958, 27.944494, 21.936836, 12.509773, 12.508435, 6.663735, 5.436424, 2.662610, 1.961718, 0.825118, 0.602749];[0.206531324385, 1.211521686389, -0.004980860167, 0.004980860167, -0.004146474165, 0.004022589057, -0.003032780985, -0.001296126730, 0.001771019644, 0.000584494465, -0.000363170043, 0.000068165094, -0.000038749452, 0.000009899495, -0.000005656854]
Americium;Am;Actinide;Likely without hybridisation;95;0;95;1s^2 2s^2 2p^6 3s^2 3p^6 4s^2 3d^10 4p^6 5s^2 4d^10 5p^6 6s^2 4f^14 5d^10 6p^6 7s^2 5f^7;Half orbital;2S;-27695,887018041;0,2206;5;3;2;0;2;[1, 1, 2, 2, 3, 3, 3, 4, 3, 3, 3, 3, 3, 3, 3];[108.514351, 91.949998, 76.105473, 44.549019, 39.617958, 27.944494, 21.936836, 12.509773, 12.508435, 6.663735, 5.436424, 2.662610, 1.961718, 0.825118, 0.602749];[0.055032140881, -0.566461969616, -0.360558838896, 1.684438095759, 0.131075676922, -0.004076046329, 0.002637084030, 0.001066741290, -0.001767766953, -0.000295287792, 0.000189221775, -0.000035638182, 0.000019374726, -0.000004949747, 0.000002687006]
Americium;Am;Actinide;Likely without hybridisation;95;0;95;1s^2 2s^2 2p^6 3s^2 3p^6 4s^2 3d^10 4p^6 5s^2 4d^10 5p^6 6s^2 4f^14 5d^10 6p^6 7s^2 5f^7;Half orbital;2S;-27695,887018041;0,2206;5;3;3;0;2;[1, 1, 2, 2, 3, 3, 3, 4, 3, 3, 3, 3, 3, 3, 3];[108.514351, 91.949998, 76.105473, 44.549019, 39.617958, 27.944494, 21.936836, 12.509773, 12.508435, 6.663735, 5.436424, 2.662610, 1.961718, 0.825118, 0.602749];[-0.015536267354, 0.259623588522, 0.206077786095, -0.909802616969, -0.752750241069, 1.265624971802, 0.896637985760, 0.000458488037, 0.006602397437, -0.002762383351, 0.001452114486, -0.000236597929, 0.000143966941, -0.000036910974, 0.000020788939]
Americium;Am;Actinide;Likely without hybridisation;95;0;95;1s^2 2s^2 2p^6 3s^2 3p^6 4s^2 3d^10 4p^6 5s^2 4d^10 5p^6 6s^2 4f^14 5d^10 6p^6 7s^2 5f^7;Half orbital;2S;-27695,887018041;0,2206;5;3;4;0;2;[1, 1, 2, 2, 3, 3, 3, 4, 3, 3, 3, 3, 3, 3, 3];[108.514351, 91.949998, 76.105473, 44.549019, 39.617958, 27.944494, 21.936836, 12.509773, 12.508435, 6.663735, 5.436424, 2.662610, 1.961718, 0.825118, 0.602749];[0.008672664671, -0.136304165883, -0.108352659087, 0.479075592277, 0.495260135127, -0.381423721531, -1.895925248730, -0.008803762268, 2.328201685801, 0.047623924556, -0.014119649628, 0.000565544004, -0.000308157135, 0.000037618081, -0.000018384776]
Americium;Am;Actinide;Likely without hybridisation;95;0;95;1s^2 2s^2 2p^6 3s^2 3p^6 4s^2 3d^10 4p^6 5s^2 4d^10 5p^6 6s^2 4f^14 5d^10 6p^6 7s^2 5f^7;Half orbital;2S;-27695,887018041;0,2206;5;3;5;0;2;[1, 1, 2, 2, 3, 3, 3, 4, 3, 3, 3, 3, 3, 3, 3];[108.514351, 91.949998, 76.105473, 44.549019, 39.617958, 27.944494, 21.936836, 12.509773, 12.508435, 6.663735, 5.436424, 2.662610, 1.961718, 0.825118, 0.602749];[-0.007170628447, 0.071632462519, 0.050806470756, -0.232926630577, -0.279521431923, 0.198959342129, 1.058196046069, -1.097832209581, -1.421712571209, 1.675131439148, 0.773438205588, 0.009949275254, -0.001802132343, 0.000284398347, -0.000145805418]
Americium;Am;Actinide;Likely without hybridisation;95;0;95;1s^2 2s^2 2p^6 3s^2 3p^6 4s^2 3d^10 4p^6 5s^2 4d^10 5p^6 6s^2 4f^14 5d^10 6p^6 7s^2 5f^7;Half orbital;2S;-27695,887018041;0,2206;5;3;6;0;2;[1, 1, 2, 2, 3, 3, 3, 4, 3, 3, 3, 3, 3, 3, 3];[108.514351, 91.949998, 76.105473, 44.549019, 39.617958, 27.944494, 21.936836, 12.509773, 12.508435, 6.663735, 5.436424, 2.662610, 1.961718, 0.825118, 0.602749];[0.002519421461, -0.028717727704, -0.021182373580, 0.095884245214, 0.113627534253, -0.071166054886, -0.455133098087, 0.605863515099, 0.616823670207, -0.650406575409, -1.122613615256, 1.468383315824, 0.436015759151, -0.004928110001, 0.002407274326]
Americium;Am;Actinide;Likely without hybridisation;95;0;95;1s^2 2s^2 2p^6 3s^2 3p^6 4s^2 3d^10 4p^6 5s^2 4d^10 5p^6 6s^2 4f^14 5d^10 6p^6 7s^2 5f^7;Half orbital;2S;-27695,887018041;0,2206;5;3;7;0;2;[1, 1, 2, 2, 3, 3, 3, 4, 3, 3, 3, 3, 3, 3, 3];[108.514351, 91.949998, 76.105473, 44.549019, 39.617958, 27.944494, 21.936836, 12.509773, 12.508435, 6.663735, 5.436424, 2.662610, 1.961718, 0.825118, 0.602749];[-0.000958129689, 0.007787791245, 0.005106866595, -0.024042337667, -0.031004511035, 0.023561929320, 0.109751881986, -0.177107762692, -0.149680646284, 0.191161227125, 0.303143041056, -0.395627516866, -0.331423918191, 0.968690469706, 0.612869670508]
Americium;Am;Actinide;Likely without hybridisation;95;0;95;1s^2 2s^2 2p^6 3s^2 3p^6 4s^2 3d^10 4p^6 5s^2 4d^10 5p^6 6s^2 4f^14 5d^10 6p^6 7s^2 5f^7;Half orbital;2S;-27695,887018041;0,2206;5;3;2;1;6;[2, 2, 3, 3, 4, 4, 3, 3, 3, 3, 3, 3];[91.104106, 51.359787, 46.111052, 28.473803, 28.476350, 15.819973, 14.584813, 11.386274, 6.553568, 5.147036, 2.343903, 1.602802];[-0.011027602822, -1.794714190150, -0.672668830255, -0.099608990288, 0.060671901337, 0.034745767052, -0.041155346862, -0.007417789788, 0.001530931089, -0.000751258504, 0.000087201835, -0.000036497397]
Americium;Am;Actinide;Likely without hybridisation;95;0;95;1s^2 2s^2 2p^6 3s^2 3p^6 4s^2 3d^10 4p^6 5s^2 4d^10 5p^6 6s^2 4f^14 5d^10 6p^6 7s^2 5f^7;Half orbital;2S;-27695,887018041;0,2206;5;3;3;1;6;[2, 2, 3, 3, 4, 4, 3, 3, 3, 3, 3, 3];[91.104106, 51.359787, 46.111052, 28.473803, 28.476350, 15.819973, 14.584813, 11.386274, 6.553568, 5.147036, 2.343903, 1.602802];[-0.003601974667, -0.932491596150, -0.613254252003, 1.410353731906, 1.007175313662, -0.760652297275, 1.248747911279, 0.030969633665, -0.007106704591, 0.002812504123, -0.000275812545, 0.000111696732]
Americium;Am;Actinide;Likely without hybridisation;95;0;95;1s^2 2s^2 2p^6 3s^2 3p^6 4s^2 3d^10 4p^6 5s^2 4d^10 5p^6 6s^2 4f^14 5d^10 6p^6 7s^2 5f^7;Half orbital;2S;-27695,887018041;0,2206;5;3;4;1;6;[2, 2, 3, 3, 4, 4, 3, 3, 3, 3, 3, 3];[91.104106, 51.359787, 46.111052, 28.473803, 28.476350, 15.819973, 14.584813, 11.386274, 6.553568, 5.147036, 2.343903, 1.602802];[0.001165957118, 0.489873453659, 0.334557187845, -0.796669839402, -0.973237878225, 2.498764658245, -2.161200476792, 2.282921745835, 0.052458762229, -0.011380574294, 0.000674589475, -0.000268464076]
Americium;Am;Actinide;Likely without hybridisation;95;0;95;1s^2 2s^2 2p^6 3s^2 3p^6 4s^2 3d^10 4p^6 5s^2 4d^10 5p^6 6s^2 4f^14 5d^10 6p^6 7s^2 5f^7;Half orbital;2S;-27695,887018041;0,2206;5;3;5;1;6;[2, 2, 3, 3, 4, 4, 3, 3, 3, 3, 3, 3];[91.104106, 51.359787, 46.111052, 28.473803, 28.476350, 15.819973, 14.584813, 11.386274, 6.553568, 5.147036, 2.343903, 1.602802];[-0.000313534687, -0.238507061204, -0.157987924277, 0.404713758415, 0.610385899514, -0.711826618232, 1.937739406333, -4.360096886083, 2.183475891564, 1.771925117379, 0.025294655829, -0.005994636248]
Americium;Am;Actinide;Likely without hybridisation;95;0;95;1s^2 2s^2 2p^6 3s^2 3p^6 4s^2 3d^10 4p^6 5s^2 4d^10 5p^6 6s^2 4f^14 5d^10 6p^6 7s^2 5f^7;Half orbital;2S;-27695,887018041;0,2206;5;3;6;1;6;[2, 2, 3, 3, 4, 4, 3, 3, 3, 3, 3, 3];[91.104106, 51.359787, 46.111052, 28.473803, 28.476350, 15.819973, 14.584813, 11.386274, 6.553568, 5.147036, 2.343903, 1.602802];[0.000200858159, 0.088514761345, 0.060626340828, -0.152031255120, -0.221449549482, 0.304851245938, -0.871604874562, 1.900416776071, -0.716433863489, -1.697488553382, 2.299376683080, 0.779402406409]
Americium;Am;Actinide;Likely without hybridisation;95;0;95;1s^2 2s^2 2p^6 3s^2 3p^6 4s^2 3d^10 4p^6 5s^2 4d^10 5p^6 6s^2 4f^14 5d^10 6p^6 7s^2 5f^7;Half orbital;2S;-27695,887018041;0,2206;5;3;3;2;10;[3, 3, 4, 4, 4, 4, 4, 4, 4];[62.341082, 35.192142, 29.205796, 19.795476, 15.067734, 11.821831, 8.312521, 5.652153, 3.713707];[0.007292528512, 1.403548478967, 1.579376176516, 0.490508477335, -0.142924830951, 0.060214193838, -0.013875441917, 0.003219514886, -0.000618225283]
Americium;Am;Actinide;Likely without hybridisation;95;0;95;1s^2 2s^2 2p^6 3s^2 3p^6 4s^2 3d^10 4p^6 5s^2 4d^10 5p^6 6s^2 4f^14 5d^10 6p^6 7s^2 5f^7;Half orbital;2S;-27695,887018041;0,2206;5;3;4;2;10;[3, 3, 4, 4, 4, 4, 4, 4, 4];[62.341082, 35.192142, 29.205796, 19.795476, 15.067734, 11.821831, 8.312521, 5.652153, 3.713707];[-0.002702166261, -0.793305101446, -1.021964655636, 0.136975954217, 1.948970540326, 1.402755379730, 0.131218711509, -0.007289050007, 0.001152966435]
Americium;Am;Actinide;Likely without hybridisation;95;0;95;1s^2 2s^2 2p^6 3s^2 3p^6 4s^2 3d^10 4p^6 5s^2 4d^10 5p^6 6s^2 4f^14 5d^10 6p^6 7s^2 5f^7;Half orbital;2S;-27695,887018041;0,2206;5;3;5;2;10;[3, 3, 4, 4, 4, 4, 4, 4, 4];[62.341082, 35.192142, 29.205796, 19.795476, 15.067734, 11.821831, 8.312521, 5.652153, 3.713707];[0.001467296834, 0.357397458875, 0.493388047372, -0.201081330716, -0.746234282247, -1.737864156972, 1.400031709981, 2.462611394973, 0.411168828208]
Americium;Am;Actinide;Likely without hybridisation;95;0;95;1s^2 2s^2 2p^6 3s^2 3p^6 4s^2 3d^10 4p^6 5s^2 4d^10 5p^6 6s^2 4f^14 5d^10 6p^6 7s^2 5f^7;Half orbital;2S;-27695,887018041;0,2206;5;3;4;3;14;[4, 4, 4, 5, 4, 4, 4, 4];[33.485222, 20.732321, 13.553845, 8.696144, 8.184470, 4.844213, 2.996931, 1.866870];[0.061836874968, 0.957244298385, 2.114296094550, -0.752024493196, 1.641027321663, 0.006494020560, -0.000840376249, 0.000194940350]
Americium;Am;Actinide;Likely without hybridisation;95;0;95;1s^2 2s^2 2p^6 3s^2 3p^6 4s^2 3d^10 4p^6 5s^2 4d^10 5p^6 6s^2 4f^14 5d^10 6p^6 7s^2 5f^7;Half orbital;2S;-27695,887018041;0,2206;5;3;5;3;7;[4, 4, 4, 5, 4, 4, 4, 4];[33.485222, 20.732321, 13.553845, 8.696144, 8.184470, 4.844213, 2.996931, 1.866870];[-0.013951575814, -0.254730555053, -0.494207824648, 0.669014201221, -0.487447400898, 1.459392189981, 1.018691246123, 0.270583896909]
Curium;Cm;Actinide;Likely without hybridisation;96;0;96;1s^2 2s^2 2p^6 3s^2 3p^6 4s^2 3d^10 4p^6 5s^2 4d^10 5p^6 6s^2 4f^14 5d^10 6p^6 7s^2 5f^8;No special;1S;-28392,770961608;0,2213;6;2;1;0;2;[1, 1, 2, 2, 3, 3, 3, 4, 3, 3, 3, 3, 3, 3, 3];[109.612751, 92.936745, 76.950992, 44.998600, 40.035230, 28.287682, 22.155737, 12.809142, 12.807190, 6.672423, 5.474202, 2.789448, 2.064744, 0.896377, 0.641591];[0.206155426420, 1.211877502521, -0.004957242800, 0.004957384222, -0.004166555997, 0.004068833840, -0.003107734303, -0.001318754147, 0.001855589615, 0.000594676803, -0.000393151370, 0.000080751594, -0.000044830570, 0.000010606602, -0.000005656854]
Curium;Cm;Actinide;Likely without hybridisation;96;0;96;1s^2 2s^2 2p^6 3s^2 3p^6 4s^2 3d^10 4p^6 5s^2 4d^10 5p^6 6s^2 4f^14 5d^10 6p^6 7s^2 5f^8;No special;1S;-28392,770961608;0,2213;6;2;2;0;2;[1, 1, 2, 2, 3, 3, 3, 4, 3, 3, 3, 3, 3, 3, 3];[109.612751, 92.936745, 76.950992, 44.998600, 40.035230, 28.287682, 22.155737, 12.809142, 12.807190, 6.672423, 5.474202, 2.789448, 2.064744, 0.896377, 0.641591];[0.055096770441, -0.566587268938, -0.360684138217, 1.687337092140, 0.127564184646, -0.003637215861, 0.002384929752, 0.000970009082, -0.001672873223, -0.000247487373, 0.000170129892, -0.000035355339, 0.000018667619, -0.000004384062, 0.000002262742]
Curium;Cm;Actinide;Likely without hybridisation;96;0;96;1s^2 2s^2 2p^6 3s^2 3p^6 4s^2 3d^10 4p^6 5s^2 4d^10 5p^6 6s^2 4f^14 5d^10 6p^6 7s^2 5f^8;No special;1S;-28392,770961608;0,2213;6;2;3;0;2;[1, 1, 2, 2, 3, 3, 3, 4, 3, 3, 3, 3, 3, 3, 3];[109.612751, 92.936745, 76.950992, 44.998600, 40.035230, 28.287682, 22.155737, 12.809142, 12.807190, 6.672423, 5.474202, 2.789448, 2.064744, 0.896377, 0.641591];[-0.015523822274, 0.259882248183, 0.206227692733, -0.911906966750, -0.758031904461, 1.278134539289, 0.893251792806, 0.003055125559, 0.001897026073, -0.003514886388, 0.002017941332, -0.000358927402, 0.000208172236, -0.000048790368, 0.000025738687]
Curium;Cm;Actinide;Likely without hybridisation;96;0;96;1s^2 2s^2 2p^6 3s^2 3p^6 4s^2 3d^10 4p^6 5s^2 4d^10 5p^6 6s^2 4f^14 5d^10 6p^6 7s^2 5f^8;No special;1S;-28392,770961608;0,2213;6;2;4;0;2;[1, 1, 2, 2, 3, 3, 3, 4, 3, 3, 3, 3, 3, 3, 3];[109.612751, 92.936745, 76.950992, 44.998600, 40.035230, 28.287682, 22.155737, 12.809142, 12.807190, 6.672423, 5.474202, 2.789448, 2.064744, 0.896377, 0.641591];[0.008650037254, -0.136743844880, -0.108734779592, 0.481430399280, 0.500426398692, -0.391671395847, -1.912241313442, 0.060784595967, 2.281692020111, 0.049759245613, -0.016855728607, 0.000900854039, -0.000458629458, 0.000058831284, -0.000027577164]