Element name;Symbol;clasificacion;Possible hybridization;Z;Q;N;Complete electronic configuration;Special configuration;Config;Energy;Ionization;Valence_n;Valence_l;n;l;mz;N_list;A_list;C_list
Neodymium;Nd;Lanthanide;Likely without hybridisation;60;0;60;1s^2 2s^2 2p^6 3s^2 3p^6 4s^2 3d^10 4p^6 5s^2 4d^10 5p^6 6s^2 4f^4;No special;3P;-9283,882809548;0,2026;4;3;5;1;6;[2, 2, 3, 4, 3, 3, 3, 4, 3, 3];[51.237254, 30.065452, 26.130120, 20.429427, 15.899519, 11.386007, 6.861663, 5.735242, 2.462338, 1.673724];[-0.003081213147, -0.153433098100, -0.218888118058, -0.387210439560, 0.963642247107, 0.458645153877, -1.261557027991, -0.685573722016, 2.073646895222, 0.912270323476]
Neodymium;Nd;Lanthanide;Likely without hybridisation;60;0;60;1s^2 2s^2 2p^6 3s^2 3p^6 4s^2 3d^10 4p^6 5s^2 4d^10 5p^6 6s^2 4f^4;No special;3P;-9283,882809548;0,2026;4;3;3;2;10;[3, 3, 4, 4, 4, 4, 4];[36.662542, 20.546525, 16.415952, 11.670571, 9.170058, 6.047923, 3.955445];[0.018997066816, 1.373887263198, 1.528052093864, 0.517424203640, -0.005047943829, 0.005356898356, -0.000455367983]
Neodymium;Nd;Lanthanide;Likely without hybridisation;60;0;60;1s^2 2s^2 2p^6 3s^2 3p^6 4s^2 3d^10 4p^6 5s^2 4d^10 5p^6 6s^2 4f^4;No special;3P;-9283,882809548;0,2026;4;3;4;2;10;[3, 3, 4, 4, 4, 4, 4];[36.662542, 20.546525, 16.415952, 11.670571, 9.170058, 6.047923, 3.955445];[-0.006633826076, -0.643065289811, -0.713748520071, -0.401671243484, 1.446987422273, 2.030535800471, 0.390178261555]
Neodymium;Nd;Lanthanide;Likely without hybridisation;60;0;60;1s^2 2s^2 2p^6 3s^2 3p^6 4s^2 3d^10 4p^6 5s^2 4d^10 5p^6 6s^2 4f^4;No special;3P;-9283,882809548;0,2026;4;3;4;3;4;[4, 4, 4, 4, 4, 4];[18.028978, 10.369350, 6.872231, 4.452468, 2.749827, 1.693471];[0.037644000000, 0.313428200000, 0.642943200000, 0.794995600000, 0.510840400000, 0.130261400000]
Promethium;Pm;Lanthanide;Likely without hybridisation;61;0;61;1s^2 2s^2 2p^6 3s^2 3p^6 4s^2 3d^10 4p^6 5s^2 4d^10 5p^6 6s^2 4f^5;No special;1D;-9655,098830139;0,204;4;3;1;0;2;[1, 1, 2, 2, 3, 3, 3, 3, 3, 3, 3, 3, 3];[79.583280, 60.106967, 49.855683, 29.205148, 26.715753, 16.060435, 13.827036, 7.090212, 5.751454, 2.821153, 2.078318, 0.860376, 0.620681];[0.053248817579, 1.351864421942, 0.012641655034, 0.002295692876, -0.001466256621, 0.001354675171, -0.001140704659, 0.000372221010, -0.000266154992, 0.000066892302, -0.000040022244, 0.000010606602, -0.000005939697]
Promethium;Pm;Lanthanide;Likely without hybridisation;61;0;61;1s^2 2s^2 2p^6 3s^2 3p^6 4s^2 3d^10 4p^6 5s^2 4d^10 5p^6 6s^2 4f^5;No special;1D;-9655,098830139;0,204;4;3;2;0;2;[1, 1, 2, 2, 3, 3, 3, 3, 3, 3, 3, 3, 3];[79.583280, 60.106967, 49.855683, 29.205148, 26.715753, 16.060435, 13.827036, 7.090212, 5.751454, 2.821153, 2.078318, 0.860376, 0.620681];[0.015817554431, -0.493916773665, -0.342571173753, 1.459666669110, 0.315765038521, 0.031142396857, -0.017226111139, 0.002066873121, -0.001524805063, 0.000360624458, -0.000202656803, 0.000051477374, -0.000028991378]
Promethium;Pm;Lanthanide;Likely without hybridisation;61;0;61;1s^2 2s^2 2p^6 3s^2 3p^6 4s^2 3d^10 4p^6 5s^2 4d^10 5p^6 6s^2 4f^5;No special;1D;-9655,098830139;0,204;4;3;3;0;2;[1, 1, 2, 2, 3, 3, 3, 3, 3, 3, 3, 3, 3];[79.583280, 60.106967, 49.855683, 29.205148, 26.715753, 16.060435, 13.827036, 7.090212, 5.751454, 2.821153, 2.078318, 0.860376, 0.620681];[-0.006188457128, 0.224457329816, 0.172609007928, -0.723261201288, -0.541387963155, 0.607407694888, 1.201035575666, 0.062964747595, -0.028983599854, 0.004161323407, -0.002365696447, 0.000554088874, -0.000309147085]
Promethium;Pm;Lanthanide;Likely without hybridisation;61;0;61;1s^2 2s^2 2p^6 3s^2 3p^6 4s^2 3d^10 4p^6 5s^2 4d^10 5p^6 6s^2 4f^5;No special;1D;-9655,098830139;0,204;4;3;4;0;2;[1, 1, 2, 2, 3, 3, 3, 3, 3, 3, 3, 3, 3];[79.583280, 60.106967, 49.855683, 29.205148, 26.715753, 16.060435, 13.827036, 7.090212, 5.751454, 2.821153, 2.078318, 0.860376, 0.620681];[0.001114117444, -0.103753636582, -0.087613641459, 0.356692661859, 0.280600052607, 0.335443961663, -1.924485291622, 1.420039980829, 0.586604189121, 0.011182610902, -0.002507966332, 0.000434446406, -0.000225991327]
Promethium;Pm;Lanthanide;Likely without hybridisation;61;0;61;1s^2 2s^2 2p^6 3s^2 3p^6 4s^2 3d^10 4p^6 5s^2 4d^10 5p^6 6s^2 4f^5;No special;1D;-9655,098830139;0,204;4;3;5;0;2;[1, 1, 2, 2, 3, 3, 3, 3, 3, 3, 3, 3, 3];[79.583280, 60.106967, 49.855683, 29.205148, 26.715753, 16.060435, 13.827036, 7.090212, 5.751454, 2.821153, 2.078318, 0.860376, 0.620681];[-0.000926875569, 0.040501379370, 0.032537659958, -0.134902680243, -0.113866677767, -0.185360971620, 0.871596789053, -0.497493885449, -0.829189049801, 1.299665092248, 0.513553553242, -0.003351120457, 0.001689560943]
Promethium;Pm;Lanthanide;Likely without hybridisation;61;0;61;1s^2 2s^2 2p^6 3s^2 3p^6 4s^2 3d^10 4p^6 5s^2 4d^10 5p^6 6s^2 4f^5;No special;1D;-9655,098830139;0,204;4;3;6;0;2;[1, 1, 2, 2, 3, 3, 3, 3, 3, 3, 3, 3, 3];[79.583280, 60.106967, 49.855683, 29.205148, 26.715753, 16.060435, 13.827036, 7.090212, 5.751454, 2.821153, 2.078318, 0.860376, 0.620681];[0.000054305801, -0.010224905477, -0.008872210205, 0.035825282226, 0.028228692654, 0.057799473980, -0.240018345907, 0.136808050175, 0.231633897960, -0.360132170664, -0.317870661094, 0.944136610994, 0.626254919033]
Promethium;Pm;Lanthanide;Likely without hybridisation;61;0;61;1s^2 2s^2 2p^6 3s^2 3p^6 4s^2 3d^10 4p^6 5s^2 4d^10 5p^6 6s^2 4f^5;No special;1D;-9655,098830139;0,204;4;3;2;1;6;[2, 2, 3, 4, 3, 3, 3, 4, 3, 3];[52.707402, 30.902387, 26.993566, 20.940024, 16.041755, 11.552711, 7.065332, 5.888728, 2.506045, 1.698957];[0.036136587328, 1.931199268720, 0.551956016139, 0.044215739347, -0.031967065888, 0.006241054916, -0.001767306849, 0.000436009174, -0.000094305355, 0.000038701938]
Promethium;Pm;Lanthanide;Likely without hybridisation;61;0;61;1s^2 2s^2 2p^6 3s^2 3p^6 4s^2 3d^10 4p^6 5s^2 4d^10 5p^6 6s^2 4f^5;No special;1D;-9655,098830139;0,204;4;3;3;1;6;[2, 2, 3, 4, 3, 3, 3, 4, 3, 3];[52.707402, 30.902387, 26.993566, 20.940024, 16.041755, 11.552711, 7.065332, 5.888728, 2.506045, 1.698957];[-0.012723384571, -0.946100961161, -0.713439852177, -0.603735534863, 2.884801547269, 0.794917964338, 0.002847531826, 0.002503868415, -0.000437968766, 0.000164115813]
Promethium;Pm;Lanthanide;Likely without hybridisation;61;0;61;1s^2 2s^2 2p^6 3s^2 3p^6 4s^2 3d^10 4p^6 5s^2 4d^10 5p^6 6s^2 4f^5;No special;1D;-9655,098830139;0,204;4;3;4;1;6;[2, 2, 3, 4, 3, 3, 3, 4, 3, 3];[52.707402, 30.902387, 26.993566, 20.940024, 16.041755, 11.552711, 7.065332, 5.888728, 2.506045, 1.698957];[0.006929606482, 0.436275923648, 0.495218485227, 0.736494694585, -2.189881062292, -1.190471855860, 2.737796155203, 0.746485428399, 0.023527104030, -0.005675957632]
Promethium;Pm;Lanthanide;Likely without hybridisation;61;0;61;1s^2 2s^2 2p^6 3s^2 3p^6 4s^2 3d^10 4p^6 5s^2 4d^10 5p^6 6s^2 4f^5;No special;1D;-9655,098830139;0,204;4;3;5;1;6;[2, 2, 3, 4, 3, 3, 3, 4, 3, 3];[52.707402, 30.902387, 26.993566, 20.940024, 16.041755, 11.552711, 7.065332, 5.888728, 2.506045, 1.698957];[-0.002803685960, -0.150363152606, -0.198348656667, -0.334413402797, 0.906440047990, 0.448441559405, -1.249509457640, -0.684371267501, 2.056546517429, 0.916648541442]
Promethium;Pm;Lanthanide;Likely without hybridisation;61;0;61;1s^2 2s^2 2p^6 3s^2 3p^6 4s^2 3d^10 4p^6 5s^2 4d^10 5p^6 6s^2 4f^5;No special;1D;-9655,098830139;0,204;4;3;3;2;10;[3, 3, 4, 4, 4, 4, 4];[37.170325, 20.912933, 16.725468, 11.821550, 9.400657, 6.192424, 4.043059];[0.019200401269, 1.385291385124, 1.537041816796, 0.502121309587, -0.014214754310, 0.006140826988, -0.000431650901]
Promethium;Pm;Lanthanide;Likely without hybridisation;61;0;61;1s^2 2s^2 2p^6 3s^2 3p^6 4s^2 3d^10 4p^6 5s^2 4d^10 5p^6 6s^2 4f^5;No special;1D;-9655,098830139;0,204;4;3;4;2;10;[3, 3, 4, 4, 4, 4, 4];[37.170325, 20.912933, 16.725468, 11.821550, 9.400657, 6.192424, 4.043059];[-0.006751462804, -0.652321276523, -0.726393835979, -0.403412393563, 1.479364402097, 2.024006645786, 0.383412568501]
Promethium;Pm;Lanthanide;Likely without hybridisation;61;0;61;1s^2 2s^2 2p^6 3s^2 3p^6 4s^2 3d^10 4p^6 5s^2 4d^10 5p^6 6s^2 4f^5;No special;1D;-9655,098830139;0,204;4;3;4;3;5;[4, 4, 4, 4, 4, 4];[18.396071, 10.595185, 7.014692, 4.559395, 2.824301, 1.742054];[0.043289381617, 0.368647781863, 0.733005890918, 0.875364487885, 0.554094290722, 0.140549394367]
Samarium;Sm;Lanthanide;Likely without hybridisation;62;0;62;1s^2 2s^2 2p^6 3s^2 3p^6 4s^2 3d^10 4p^6 5s^2 4d^10 5p^6 6s^2 4f^6;No special;1S;-10034,952404095;0,2059;4;3;1;0;2;[1, 1, 2, 2, 3, 3, 3, 3, 3, 3, 3, 3, 3];[80.553966, 61.076422, 50.677558, 29.587248, 27.096630, 16.477257, 14.129532, 7.261204, 5.877176, 2.877709, 2.119230, 0.868757, 0.624307];[0.054809119402, 1.350717919007, 0.012076111030, 0.002375595942, -0.001542765575, 0.001400778534, -0.001158382329, 0.000374766594, -0.000265730728, 0.000066609459, -0.000039739401, 0.000010182338, -0.000005798276]
Samarium;Sm;Lanthanide;Likely without hybridisation;62;0;62;1s^2 2s^2 2p^6 3s^2 3p^6 4s^2 3d^10 4p^6 5s^2 4d^10 5p^6 6s^2 4f^6;No special;1S;-10034,952404095;0,2059;4;3;2;0;2;[1, 1, 2, 2, 3, 3, 3, 3, 3, 3, 3, 3, 3];[80.553966, 61.076422, 50.677558, 29.587248, 27.096630, 16.477257, 14.129532, 7.261204, 5.877176, 2.877709, 2.119230, 0.868757, 0.624307];[0.016350571523, -0.495340745301, -0.342721080391, 1.474787723362, 0.300109552964, 0.029394146051, -0.015801856661, 0.001872277335, -0.001383666549, 0.000328804653, -0.000183564920, 0.000045961941, -0.000025880108]
Samarium;Sm;Lanthanide;Likely without hybridisation;62;0;62;1s^2 2s^2 2p^6 3s^2 3p^6 4s^2 3d^10 4p^6 5s^2 4d^10 5p^6 6s^2 4f^6;No special;1S;-10034,952404095;0,2059;4;3;3;0;2;[1, 1, 2, 2, 3, 3, 3, 3, 3, 3, 3, 3, 3];[80.553966, 61.076422, 50.677558, 29.587248, 27.096630, 16.477257, 14.129532, 7.261204, 5.877176, 2.877709, 2.119230, 0.868757, 0.624307];[-0.006284906493, 0.225482068963, 0.173624554687, -0.733795536693, -0.542536728832, 0.590018949189, 1.227578384333, 0.062456620662, -0.028260936724, 0.004047479216, -0.002291308814, 0.000527077395, -0.000294580685]
Samarium;Sm;Lanthanide;Likely without hybridisation;62;0;62;1s^2 2s^2 2p^6 3s^2 3p^6 4s^2 3d^10 4p^6 5s^2 4d^10 5p^6 6s^2 4f^6;No special;1S;-10034,952404095;0,2059;4;3;4;0;2;[1, 1, 2, 2, 3, 3, 3, 3, 3, 3, 3, 3, 3];[80.553966, 61.076422, 50.677558, 29.587248, 27.096630, 16.477257, 14.129532, 7.261204, 5.877176, 2.877709, 2.119230, 0.868757, 0.624307];[0.001108319169, -0.104409690254, -0.088361336169, 0.362795559066, 0.281689845579, 0.332392654481, -1.931196724925, 1.406847489612, 0.602937790081, 0.011043169445, -0.002430467428, 0.000414081731, -0.000215808990]
Samarium;Sm;Lanthanide;Likely without hybridisation;62;0;62;1s^2 2s^2 2p^6 3s^2 3p^6 4s^2 3d^10 4p^6 5s^2 4d^10 5p^6 6s^2 4f^6;No special;1S;-10034,952404095;0,2059;4;3;5;0;2;[1, 1, 2, 2, 3, 3, 3, 3, 3, 3, 3, 3, 3];[80.553966, 61.076422, 50.677558, 29.587248, 27.096630, 16.477257, 14.129532, 7.261204, 5.877176, 2.877709, 2.119230, 0.868757, 0.624307];[-0.000938754963, 0.040566291773, 0.032641746076, -0.136505125630, -0.113824675624, -0.182164000441, 0.869085428609, -0.495005859529, -0.821568135756, 1.273205297917, 0.533443759890, -0.002795475949, 0.001433164024]
Samarium;Sm;Lanthanide;Likely without hybridisation;62;0;62;1s^2 2s^2 2p^6 3s^2 3p^6 4s^2 3d^10 4p^6 5s^2 4d^10 5p^6 6s^2 4f^6;No special;1S;-10034,952404095;0,2059;4;3;6;0;2;[1, 1, 2, 2, 3, 3, 3, 3, 3, 3, 3, 3, 3];[80.553966, 61.076422, 50.677558, 29.587248, 27.096630, 16.477257, 14.129532, 7.261204, 5.877176, 2.877709, 2.119230, 0.868757, 0.624307];[0.000048083261, -0.010134961495, -0.008826672528, 0.035928378395, 0.027884897337, 0.056319075223, -0.236938047347, 0.135195563872, 0.226384337216, -0.347027784952, -0.319213174029, 0.944877658900, 0.622488161210]
Samarium;Sm;Lanthanide;Likely without hybridisation;62;0;62;1s^2 2s^2 2p^6 3s^2 3p^6 4s^2 3d^10 4p^6 5s^2 4d^10 5p^6 6s^2 4f^6;No special;1S;-10034,952404095;0,2059;4;3;2;1;6;[2, 2, 3, 4, 3, 3, 3, 4, 3, 3];[54.405756, 31.824093, 27.897446, 21.470139, 16.141744, 11.669037, 7.244475, 6.017516, 2.554320, 1.728467];[0.031425238757, 1.885812183378, 0.602218565865, 0.052700036969, -0.037560965614, 0.008340022676, -0.002274351226, 0.000574650294, -0.000122964385, 0.000050459489]
Samarium;Sm;Lanthanide;Likely without hybridisation;62;0;62;1s^2 2s^2 2p^6 3s^2 3p^6 4s^2 3d^10 4p^6 5s^2 4d^10 5p^6 6s^2 4f^6;No special;1S;-10034,952404095;0,2059;4;3;3;1;6;[2, 2, 3, 4, 3, 3, 3, 4, 3, 3];[54.405756, 31.824093, 27.897446, 21.470139, 16.141744, 11.669037, 7.244475, 6.017516, 2.554320, 1.728467];[-0.011064345168, -0.925352803243, -0.678654403391, -0.462980015875, 2.757222078557, 0.729331161832, 0.001006985233, 0.002811034429, -0.000443112694, 0.000165585507]
Samarium;Sm;Lanthanide;Likely without hybridisation;62;0;62;1s^2 2s^2 2p^6 3s^2 3p^6 4s^2 3d^10 4p^6 5s^2 4d^10 5p^6 6s^2 4f^6;No special;1S;-10034,952404095;0,2059;4;3;4;1;6;[2, 2, 3, 4, 3, 3, 3, 4, 3, 3];[54.405756, 31.824093, 27.897446, 21.470139, 16.141744, 11.669037, 7.244475, 6.017516, 2.554320, 1.728467];[0.006215090324, 0.427674785366, 0.463545848006, 0.637514978212, -2.129871013084, -1.135686568272, 2.749971343969, 0.754790668321, 0.023172907814, -0.005537071564]
Samarium;Sm;Lanthanide;Likely without hybridisation;62;0;62;1s^2 2s^2 2p^6 3s^2 3p^6 4s^2 3d^10 4p^6 5s^2 4d^10 5p^6 6s^2 4f^6;No special;1S;-10034,952404095;0,2059;4;3;5;1;6;[2, 2, 3, 4, 3, 3, 3, 4, 3, 3];[54.405756, 31.824093, 27.897446, 21.470139, 16.141744, 11.669037, 7.244475, 6.017516, 2.554320, 1.728467];[-0.002485007344, -0.146478261874, -0.181327152444, -0.286078601498, 0.864826891495, 0.427927817656, -1.247687282220, -0.674418255829, 2.026044736305, 0.938065410059]
Samarium;Sm;Lanthanide;Likely without hybridisation;62;0;62;1s^2 2s^2 2p^6 3s^2 3p^6 4s^2 3d^10 4p^6 5s^2 4d^10 5p^6 6s^2 4f^6;No special;1S;-10034,952404095;0,2059;4;3;3;2;10;[3, 3, 4, 4, 4, 4, 4];[38.244436, 21.430627, 17.191602, 12.265523, 9.551774, 6.314693, 4.118198];[0.017362169265, 1.370382827095, 1.527511344384, 0.515338681523, -0.001640589650, 0.005510585051, -0.000256776946]
Samarium;Sm;Lanthanide;Likely without hybridisation;62;0;62;1s^2 2s^2 2p^6 3s^2 3p^6 4s^2 3d^10 4p^6 5s^2 4d^10 5p^6 6s^2 4f^6;No special;1S;-10034,952404095;0,2059;4;3;4;2;10;[3, 3, 4, 4, 4, 4, 4];[38.244436, 21.430627, 17.191602, 12.265523, 9.551774, 6.314693, 4.118198];[-0.006046591114, -0.648346925959, -0.730245490169, -0.372137467504, 1.476943994776, 2.002414297694, 0.370676811453]
Samarium;Sm;Lanthanide;Likely without hybridisation;62;0;62;1s^2 2s^2 2p^6 3s^2 3p^6 4s^2 3d^10 4p^6 5s^2 4d^10 5p^6 6s^2 4f^6;No special;1S;-10034,952404095;0,2059;4;3;4;3;6;[4, 4, 4, 4, 4, 4];[18.738213, 10.788462, 7.107954, 4.631628, 2.885482, 1.789754];[0.049062789650, 0.429988818326, 0.826965128541, 0.938028667713, 0.580929070715, 0.145970482650]
Europium;Eu;Lanthanide;Likely without hybridisation;63;0;63;1s^2 2s^2 2p^6 3s^2 3p^6 4s^2 3d^10 4p^6 5s^2 4d^10 5p^6 6s^2 4f^7;Half orbital;4S;-10423,542874688;0,2085;4;3;1;0;2;[1, 1, 2, 2, 3, 3, 3, 3, 3, 3, 3, 3, 3];[81.559162, 62.048937, 51.485471, 29.994154, 27.481309, 16.892730, 14.428066, 7.444558, 6.018308, 2.917280, 2.138866, 0.880123, 0.630366];[0.056128722077, 1.349768840285, 0.011576752222, 0.002427497580, -0.001601172595, 0.001432598339, -0.001165029133, 0.000374059487, -0.000261488088, 0.000063781032, -0.000038183766, 0.000010040916, -0.000005656854]
Europium;Eu;Lanthanide;Likely without hybridisation;63;0;63;1s^2 2s^2 2p^6 3s^2 3p^6 4s^2 3d^10 4p^6 5s^2 4d^10 5p^6 6s^2 4f^7;Half orbital;4S;-10423,542874688;0,2085;4;3;2;0;2;[1, 1, 2, 2, 3, 3, 3, 3, 3, 3, 3, 3, 3];[81.559162, 62.048937, 51.485471, 29.994154, 27.481309, 16.892730, 14.428066, 7.444558, 6.018308, 2.917280, 2.138866, 0.880123, 0.630366];[0.016913145678, -0.496764575515, -0.343418853363, 1.487842753020, 0.287454321480, 0.027327838615, -0.014190784570, 0.001614890467, -0.001193171983, 0.000277610122, -0.000154997806, 0.000039597980, -0.000022203153]
Europium;Eu;Lanthanide;Likely without hybridisation;63;0;63;1s^2 2s^2 2p^6 3s^2 3p^6 4s^2 3d^10 4p^6 5s^2 4d^10 5p^6 6s^2 4f^7;Half orbital;4S;-10423,542874688;0,2085;4;3;3;0;2;[1, 1, 2, 2, 3, 3, 3, 3, 3, 3, 3, 3, 3];[81.559162, 62.048937, 51.485471, 29.994154, 27.481309, 16.892730, 14.428066, 7.444558, 6.018308, 2.917280, 2.138866, 0.880123, 0.630366];[-0.006422085208, 0.226524627202, 0.174811362709, -0.743076737460, -0.545216239269, 0.577565808823, 1.249159848980, 0.061938594234, -0.027358527050, 0.003791082297, -0.002158797003, 0.000509399725, -0.000283549819]
Europium;Eu;Lanthanide;Likely without hybridisation;63;0;63;1s^2 2s^2 2p^6 3s^2 3p^6 4s^2 3d^10 4p^6 5s^2 4d^10 5p^6 6s^2 4f^7;Half orbital;4S;-10423,542874688;0,2085;4;3;4;0;2;[1, 1, 2, 2, 3, 3, 3, 3, 3, 3, 3, 3, 3];[81.559162, 62.048937, 51.485471, 29.994154, 27.481309, 16.892730, 14.428066, 7.444558, 6.018308, 2.917280, 2.138866, 0.880123, 0.630366];[0.001126703945, -0.105045944935, -0.089163053838, 0.368167590704, 0.283438803491, 0.326907061494, -1.935257922012, 1.375493243563, 0.637505977872, 0.011047129242, -0.002479964903, 0.000431335137, -0.000223870007]
Europium;Eu;Lanthanide;Likely without hybridisation;63;0;63;1s^2 2s^2 2p^6 3s^2 3p^6 4s^2 3d^10 4p^6 5s^2 4d^10 5p^6 6s^2 4f^7;Half orbital;4S;-10423,542874688;0,2085;4;3;5;0;2;[1, 1, 2, 2, 3, 3, 3, 3, 3, 3, 3, 3, 3];[81.559162, 62.048937, 51.485471, 29.994154, 27.481309, 16.892730, 14.428066, 7.444558, 6.018308, 2.917280, 2.138866, 0.880123, 0.630366];[-0.000966614970, 0.040616637775, 0.032729427317, -0.137711874063, -0.114062263502, -0.177366705195, 0.864302982605, -0.480996518559, -0.821561347531, 1.275930770295, 0.521452360252, -0.003150302132, 0.001582363555]
Europium;Eu;Lanthanide;Likely without hybridisation;63;0;63;1s^2 2s^2 2p^6 3s^2 3p^6 4s^2 3d^10 4p^6 5s^2 4d^10 5p^6 6s^2 4f^7;Half orbital;4S;-10423,542874688;0,2085;4;3;6;0;2;[1, 1, 2, 2, 3, 3, 3, 3, 3, 3, 3, 3, 3];[81.559162, 62.048937, 51.485471, 29.994154, 27.481309, 16.892730, 14.428066, 7.444558, 6.018308, 2.917280, 2.138866, 0.880123, 0.630366];[0.000057558492, -0.010067362086, -0.008759638805, 0.035905750978, 0.027724666941, 0.054093951603, -0.233011483391, 0.129681969456, 0.224640046208, -0.346504667356, -0.309928861992, 0.931400910758, 0.634716724463]
Europium;Eu;Lanthanide;Likely without hybridisation;63;0;63;1s^2 2s^2 2p^6 3s^2 3p^6 4s^2 3d^10 4p^6 5s^2 4d^10 5p^6 6s^2 4f^7;Half orbital;4S;-10423,542874688;0,2085;4;3;2;1;6;[2, 2, 3, 4, 3, 3, 3, 4, 3, 3];[55.791864, 32.553763, 28.575313, 21.951895, 16.334643, 11.814935, 7.399224, 6.128648, 2.600679, 1.754749];[-0.028849600293, -1.865809895087, -0.624484182678, -0.054705434221, 0.038001873767, -0.008971256183, 0.002465166477, -0.000621925446, 0.000132517395, -0.000054133723]
Europium;Eu;Lanthanide;Likely without hybridisation;63;0;63;1s^2 2s^2 2p^6 3s^2 3p^6 4s^2 3d^10 4p^6 5s^2 4d^10 5p^6 6s^2 4f^7;Half orbital;4S;-10423,542874688;0,2085;4;3;3;1;6;[2, 2, 3, 4, 3, 3, 3, 4, 3, 3];[55.791864, 32.553763, 28.575313, 21.951895, 16.334643, 11.814935, 7.399224, 6.128648, 2.600679, 1.754749];[-0.010099981056, -0.917824296519, -0.666826062372, -0.394709307458, 2.713814425876, 0.685263371666, -0.000191305149, 0.002964617436, -0.000435274327, 0.000161176425]
Europium;Eu;Lanthanide;Likely without hybridisation;63;0;63;1s^2 2s^2 2p^6 3s^2 3p^6 4s^2 3d^10 4p^6 5s^2 4d^10 5p^6 6s^2 4f^7;Half orbital;4S;-10423,542874688;0,2085;4;3;4;1;6;[2, 2, 3, 4, 3, 3, 3, 4, 3, 3];[55.791864, 32.553763, 28.575313, 21.951895, 16.334643, 11.814935, 7.399224, 6.128648, 2.600679, 1.754749];[0.005797942221, 0.425096697411, 0.455372635581, 0.599983406475, -2.143624897990, -1.083009801456, 2.765473184755, 0.747258242413, 0.022415525585, -0.005273016569]