Element name;Symbol;clasificacion;Possible hybridization;Z;Q;N;Complete electronic configuration;Special configuration;Config;Energy;Ionization;Valence_n;Valence_l;n;l;mz;N_list;A_list;C_list
Californium;Cf;Actinide;Likely without hybridisation;98;0;98;1s^2 2s^2 2p^6 3s^2 3p^6 4s^2 3d^10 4p^6 5s^2 4d^10 5p^6 6s^2 4f^14 5d^10 6p^6 7s^2 5f^10;No special;3P;-29817,418706498;0,2316;5;3;3;0;2;[1, 1, 2, 2, 3, 3, 3, 4, 3, 3, 3, 3, 3, 3, 3];[111.875922, 94.929823, 78.603768, 45.933619, 40.930233, 28.869705, 22.532170, 13.352997, 13.352629, 7.005320, 5.716672, 2.804739, 2.067300, 0.845180, 0.612276];[-0.015768622642, 0.260666712446, 0.206901848338, -0.914985992518, -0.762379762637, 1.315862363021, 0.866594857105, 0.007979275762, -0.007992710790, -0.004096693847, 0.002190192544, -0.000342946789, 0.000197848477, -0.000046951890, 0.000026587215]
Californium;Cf;Actinide;Likely without hybridisation;98;0;98;1s^2 2s^2 2p^6 3s^2 3p^6 4s^2 3d^10 4p^6 5s^2 4d^10 5p^6 6s^2 4f^14 5d^10 6p^6 7s^2 5f^10;No special;3P;-29817,418706498;0,2316;5;3;4;0;2;[1, 1, 2, 2, 3, 3, 3, 4, 3, 3, 3, 3, 3, 3, 3];[111.875922, 94.929823, 78.603768, 45.933619, 40.930233, 28.869705, 22.532170, 13.352997, 13.352629, 7.005320, 5.716672, 2.804739, 2.067300, 0.845180, 0.612276];[0.009128182860, -0.138201899063, -0.109170215947, 0.484364043893, 0.510019009286, -0.427955024688, -1.931940176995, 0.152172207738, 2.235270884191, 0.051770398721, -0.015946389287, 0.000831698996, -0.000441800317, 0.000065902352, -0.000034789654]
Californium;Cf;Actinide;Likely without hybridisation;98;0;98;1s^2 2s^2 2p^6 3s^2 3p^6 4s^2 3d^10 4p^6 5s^2 4d^10 5p^6 6s^2 4f^14 5d^10 6p^6 7s^2 5f^10;No special;3P;-29817,418706498;0,2316;5;3;5;0;2;[1, 1, 2, 2, 3, 3, 3, 4, 3, 3, 3, 3, 3, 3, 3];[111.875922, 94.929823, 78.603768, 45.933619, 40.930233, 28.869705, 22.532170, 13.352997, 13.352629, 7.005320, 5.716672, 2.804739, 2.067300, 0.845180, 0.612276];[-0.007784538554, 0.073904820871, 0.051552185568, -0.237933229431, -0.294510257207, 0.241172485595, 1.052720776841, -1.316097122472, -1.254476443447, 1.702370747994, 0.758443582029, 0.010917870123, -0.002201081988, 0.000356947503, -0.000188373247]
Californium;Cf;Actinide;Likely without hybridisation;98;0;98;1s^2 2s^2 2p^6 3s^2 3p^6 4s^2 3d^10 4p^6 5s^2 4d^10 5p^6 6s^2 4f^14 5d^10 6p^6 7s^2 5f^10;No special;3P;-29817,418706498;0,2316;5;3;6;0;2;[1, 1, 2, 2, 3, 3, 3, 4, 3, 3, 3, 3, 3, 3, 3];[111.875922, 94.929823, 78.603768, 45.933619, 40.930233, 28.869705, 22.532170, 13.352997, 13.352629, 7.005320, 5.716672, 2.804739, 2.067300, 0.845180, 0.612276];[0.002789394830, -0.029444350633, -0.021241063443, 0.096960320314, 0.119246911843, -0.089808642329, -0.443586892879, 0.716369455756, 0.524897525911, -0.701020006014, -1.063186098624, 1.398063809176, 0.492728551429, -0.004121584006, 0.002078045409]
Californium;Cf;Actinide;Likely without hybridisation;98;0;98;1s^2 2s^2 2p^6 3s^2 3p^6 4s^2 3d^10 4p^6 5s^2 4d^10 5p^6 6s^2 4f^14 5d^10 6p^6 7s^2 5f^10;No special;3P;-29817,418706498;0,2316;5;3;7;0;2;[1, 1, 2, 2, 3, 3, 3, 4, 3, 3, 3, 3, 3, 3, 3];[111.875922, 94.929823, 78.603768, 45.933619, 40.930233, 28.869705, 22.532170, 13.352997, 13.352629, 7.005320, 5.716672, 2.804739, 2.067300, 0.845180, 0.612276];[-0.001036901384, 0.007799812061, 0.004939282288, -0.023561929320, -0.031781621387, 0.028471371702, 0.101729896974, -0.202310321165, -0.119102803481, 0.202503078474, 0.273216160756, -0.355049345700, -0.338308451234, 0.967663043553, 0.604614340259]
Californium;Cf;Actinide;Likely without hybridisation;98;0;98;1s^2 2s^2 2p^6 3s^2 3p^6 4s^2 3d^10 4p^6 5s^2 4d^10 5p^6 6s^2 4f^14 5d^10 6p^6 7s^2 5f^10;No special;3P;-29817,418706498;0,2316;5;3;2;1;6;[2, 2, 3, 3, 4, 4, 3, 3, 3, 3, 3, 3];[94.276359, 53.232647, 47.902836, 29.893329, 29.884412, 16.680927, 15.262992, 12.121953, 6.992505, 5.450385, 2.459366, 1.676074];[-0.010396859213, -1.780576225253, -0.681903651534, -0.109081901970, 0.065768554645, 0.039090916907, -0.046648572560, -0.007544918306, 0.001504476600, -0.000713046464, 0.000082792753, -0.000035027703]
Californium;Cf;Actinide;Likely without hybridisation;98;0;98;1s^2 2s^2 2p^6 3s^2 3p^6 4s^2 3d^10 4p^6 5s^2 4d^10 5p^6 6s^2 4f^14 5d^10 6p^6 7s^2 5f^10;No special;3P;-29817,418706498;0,2316;5;3;3;1;6;[2, 2, 3, 3, 4, 4, 3, 3, 3, 3, 3, 3];[94.276359, 53.232647, 47.902836, 29.893329, 29.884412, 16.680927, 15.262992, 12.121953, 6.992505, 5.450385, 2.459366, 1.676074];[-0.003399156916, -0.928092067623, -0.609715474172, 1.270435693462, 1.066901711958, -0.890872560879, 1.458433296373, 0.013540534349, -0.006183002009, 0.002337058164, -0.000238090403, 0.000097734641]
Californium;Cf;Actinide;Likely without hybridisation;98;0;98;1s^2 2s^2 2p^6 3s^2 3p^6 4s^2 3d^10 4p^6 5s^2 4d^10 5p^6 6s^2 4f^14 5d^10 6p^6 7s^2 5f^10;No special;3P;-29817,418706498;0,2316;5;3;4;1;6;[2, 2, 3, 3, 4, 4, 3, 3, 3, 3, 3, 3];[94.276359, 53.232647, 47.902836, 29.893329, 29.884412, 16.680927, 15.262992, 12.121953, 6.992505, 5.450385, 2.459366, 1.676074];[0.001153219771, 0.491413447860, 0.335386340123, -0.691372888982, -0.974667890337, 2.718023384101, -2.789887983869, 2.585035931935, 0.062759111547, -0.013026141503, 0.000865894624, -0.000343663411]
Californium;Cf;Actinide;Likely without hybridisation;98;0;98;1s^2 2s^2 2p^6 3s^2 3p^6 4s^2 3d^10 4p^6 5s^2 4d^10 5p^6 6s^2 4f^14 5d^10 6p^6 7s^2 5f^10;No special;3P;-29817,418706498;0,2316;5;3;5;1;6;[2, 2, 3, 3, 4, 4, 3, 3, 3, 3, 3, 3];[94.276359, 53.232647, 47.902836, 29.893329, 29.884412, 16.680927, 15.262992, 12.121953, 6.992505, 5.450385, 2.459366, 1.676074];[-0.000304226626, -0.242923491210, -0.160221613973, 0.354847291180, 0.619862730380, -0.784835864557, 2.509514978828, -4.890638483094, 2.169038599020, 1.849420359218, 0.024887795583, -0.005796472527]
Californium;Cf;Actinide;Likely without hybridisation;98;0;98;1s^2 2s^2 2p^6 3s^2 3p^6 4s^2 3d^10 4p^6 5s^2 4d^10 5p^6 6s^2 4f^14 5d^10 6p^6 7s^2 5f^10;No special;3P;-29817,418706498;0,2316;5;3;6;1;6;[2, 2, 3, 3, 4, 4, 3, 3, 3, 3, 3, 3];[94.276359, 53.232647, 47.902836, 29.893329, 29.884412, 16.680927, 15.262992, 12.121953, 6.992505, 5.450385, 2.459366, 1.676074];[0.000206981883, 0.088947586183, 0.060935956331, -0.131646111583, -0.220509925217, 0.326551765467, -1.107546095260, 2.123958434743, -0.754654966589, -1.648777020561, 2.228148950646, 0.825325440107]
Californium;Cf;Actinide;Likely without hybridisation;98;0;98;1s^2 2s^2 2p^6 3s^2 3p^6 4s^2 3d^10 4p^6 5s^2 4d^10 5p^6 6s^2 4f^14 5d^10 6p^6 7s^2 5f^10;No special;3P;-29817,418706498;0,2316;5;3;3;2;10;[3, 3, 4, 4, 4, 4, 4, 4, 4];[65.304989, 36.639006, 30.509173, 21.007637, 15.708765, 12.348554, 8.848061, 5.968833, 3.898454];[0.006103512112, 1.381884030945, 1.571278848340, 0.504844663107, -0.123509394801, 0.056234151175, -0.013797333659, 0.002835298150, -0.000555928413]
Californium;Cf;Actinide;Likely without hybridisation;98;0;98;1s^2 2s^2 2p^6 3s^2 3p^6 4s^2 3d^10 4p^6 5s^2 4d^10 5p^6 6s^2 4f^14 5d^10 6p^6 7s^2 5f^10;No special;3P;-29817,418706498;0,2316;5;3;4;2;10;[3, 3, 4, 4, 4, 4, 4, 4, 4];[65.304989, 36.639006, 30.509173, 21.007637, 15.708765, 12.348554, 8.848061, 5.968833, 3.898454];[-0.002235097850, -0.789739000929, -1.032700272065, 0.064371324050, 2.096530954099, 1.315799068630, 0.126974618661, -0.004796542755, 0.001087823515]
Californium;Cf;Actinide;Likely without hybridisation;98;0;98;1s^2 2s^2 2p^6 3s^2 3p^6 4s^2 3d^10 4p^6 5s^2 4d^10 5p^6 6s^2 4f^14 5d^10 6p^6 7s^2 5f^10;No special;3P;-29817,418706498;0,2316;5;3;5;2;10;[3, 3, 4, 4, 4, 4, 4, 4, 4];[65.304989, 36.639006, 30.509173, 21.007637, 15.708765, 12.348554, 8.848061, 5.968833, 3.898454];[0.001266492203, 0.363699245796, 0.509822720600, -0.153155747865, -0.859771750674, -1.831007464313, 1.563573642593, 2.456991711343, 0.376658892103]
Californium;Cf;Actinide;Likely without hybridisation;98;0;98;1s^2 2s^2 2p^6 3s^2 3p^6 4s^2 3d^10 4p^6 5s^2 4d^10 5p^6 6s^2 4f^14 5d^10 6p^6 7s^2 5f^10;No special;3P;-29817,418706498;0,2316;5;3;4;3;14;[4, 4, 4, 5, 4, 4, 4, 4];[34.834611, 21.648291, 14.121613, 9.268811, 9.107124, 5.183159, 3.200821, 1.986833];[0.059820495803, 0.967108055588, 2.216438477054, -0.255543600379, 1.037160113515, 0.012848851466, -0.001069739847, 0.000541043658]
Californium;Cf;Actinide;Likely without hybridisation;98;0;98;1s^2 2s^2 2p^6 3s^2 3p^6 4s^2 3d^10 4p^6 5s^2 4d^10 5p^6 6s^2 4f^14 5d^10 6p^6 7s^2 5f^10;No special;3P;-29817,418706498;0,2316;5;3;5;3;10;[4, 4, 4, 5, 4, 4, 4, 4];[34.834611, 21.648291, 14.121613, 9.268811, 9.107124, 5.183159, 3.200821, 1.986833];[-0.016998191107, -0.325470471162, -0.653491003029, 0.748571205437, -0.434978249167, 1.767405838646, 1.156165078751, 0.301687613335]
Einsteinium;Es;Actinide;Likely without hybridisation;99;0;99;1s^2 2s^2 2p^6 3s^2 3p^6 4s^2 3d^10 4p^6 5s^2 4d^10 5p^6 6s^2 4f^14 5d^10 6p^6 7s^2 5f^11;No special;4S;-30544,971971799;0,236;5;3;1;0;2;[1, 1, 2, 2, 3, 3, 3, 4, 3, 3, 3, 3, 3, 3, 3];[113.057181, 95.941596, 79.416372, 46.420884, 41.383502, 29.196911, 22.759322, 13.642658, 13.642655, 7.115866, 5.812747, 2.845530, 2.094916, 0.852686, 0.616339];[0.200677611608, 1.217158175963, -0.004721493399, 0.004863197598, -0.004136150406, 0.004123988169, -0.003327927355, -0.001421143209, 0.002118633338, 0.000544896486, -0.000340966890, 0.000062508239, -0.000034789654, 0.000008343860, -0.000004808326]
Einsteinium;Es;Actinide;Likely without hybridisation;99;0;99;1s^2 2s^2 2p^6 3s^2 3p^6 4s^2 3d^10 4p^6 5s^2 4d^10 5p^6 6s^2 4f^14 5d^10 6p^6 7s^2 5f^11;No special;4S;-30544,971971799;0,236;5;3;2;0;2;[1, 1, 2, 2, 3, 3, 3, 4, 3, 3, 3, 3, 3, 3, 3];[113.057181, 95.941596, 79.416372, 46.420884, 41.383502, 29.196911, 22.759322, 13.642658, 13.642655, 7.115866, 5.812747, 2.845530, 2.094916, 0.852686, 0.616339];[0.055961844877, -0.567578915488, -0.362781275509, 1.692771349175, 0.122862065973, -0.003300067348, 0.002349150148, 0.000962230908, -0.001751220654, -0.000200111219, 0.000133077496, -0.000025031580, 0.000013152186, -0.000003111270, 0.000001697056]
Einsteinium;Es;Actinide;Likely without hybridisation;99;0;99;1s^2 2s^2 2p^6 3s^2 3p^6 4s^2 3d^10 4p^6 5s^2 4d^10 5p^6 6s^2 4f^14 5d^10 6p^6 7s^2 5f^11;No special;4S;-30544,971971799;0,236;5;3;3;0;2;[1, 1, 2, 2, 3, 3, 3, 4, 3, 3, 3, 3, 3, 3, 3];[113.057181, 95.941596, 79.416372, 46.420884, 41.383502, 29.196911, 22.759322, 13.642658, 13.642655, 7.115866, 5.812747, 2.845530, 2.094916, 0.852686, 0.616339];[-0.016114397858, 0.261288683570, 0.207301222248, -0.915653077055, -0.766244101196, 1.323869074525, 0.864414564055, 0.009986327649, -0.012215128224, -0.004360444677, 0.002341654817, -0.000360624458, 0.000206758023, -0.000048790368, 0.000027718586]
Einsteinium;Es;Actinide;Likely without hybridisation;99;0;99;1s^2 2s^2 2p^6 3s^2 3p^6 4s^2 3d^10 4p^6 5s^2 4d^10 5p^6 6s^2 4f^14 5d^10 6p^6 7s^2 5f^11;No special;4S;-30544,971971799;0,236;5;3;4;0;2;[1, 1, 2, 2, 3, 3, 3, 4, 3, 3, 3, 3, 3, 3, 3];[113.057181, 95.941596, 79.416372, 46.420884, 41.383502, 29.196911, 22.759322, 13.642658, 13.642655, 7.115866, 5.812747, 2.845530, 2.094916, 0.852686, 0.616339];[0.009347527383, -0.138870822078, -0.109581752094, 0.485678838242, 0.514253447534, -0.434147583035, -1.947473898764, 0.212701679579, 2.192962846995, 0.054214159756, -0.017146490916, 0.000979201471, -0.000518167849, 0.000083580022, -0.000044830570]
Einsteinium;Es;Actinide;Likely without hybridisation;99;0;99;1s^2 2s^2 2p^6 3s^2 3p^6 4s^2 3d^10 4p^6 5s^2 4d^10 5p^6 6s^2 4f^14 5d^10 6p^6 7s^2 5f^11;No special;4S;-30544,971971799;0,236;5;3;5;0;2;[1, 1, 2, 2, 3, 3, 3, 4, 3, 3, 3, 3, 3, 3, 3];[113.057181, 95.941596, 79.416372, 46.420884, 41.383502, 29.196911, 22.759322, 13.642658, 13.642655, 7.115866, 5.812747, 2.845530, 2.094916, 0.852686, 0.616339];[-0.008011802674, 0.074633565119, 0.051831351325, -0.239222992199, -0.299037579084, 0.250734973440, 1.048835507921, -1.393074322307, -1.184470892210, 1.701471025325, 0.759099635700, 0.011354862114, -0.002408688539, 0.000397394011, -0.000211142085]
Einsteinium;Es;Actinide;Likely without hybridisation;99;0;99;1s^2 2s^2 2p^6 3s^2 3p^6 4s^2 3d^10 4p^6 5s^2 4d^10 5p^6 6s^2 4f^14 5d^10 6p^6 7s^2 5f^11;No special;4S;-30544,971971799;0,236;5;3;6;0;2;[1, 1, 2, 2, 3, 3, 3, 4, 3, 3, 3, 3, 3, 3, 3];[113.057181, 95.941596, 79.416372, 46.420884, 41.383502, 29.196911, 22.759322, 13.642658, 13.642655, 7.115866, 5.812747, 2.845530, 2.094916, 0.852686, 0.616339];[0.002875237594, -0.029634703778, -0.021268216343, 0.097105418625, 0.120735088775, -0.093872243579, -0.438403517330, 0.752857297036, 0.487590430715, -0.707911751546, -1.047104651942, 1.381846597992, 0.502614045652, -0.004022447635, 0.002037457479]
Einsteinium;Es;Actinide;Likely without hybridisation;99;0;99;1s^2 2s^2 2p^6 3s^2 3p^6 4s^2 3d^10 4p^6 5s^2 4d^10 5p^6 6s^2 4f^14 5d^10 6p^6 7s^2 5f^11;No special;4S;-30544,971971799;0,236;5;3;7;0;2;[1, 1, 2, 2, 3, 3, 3, 4, 3, 3, 3, 3, 3, 3, 3];[113.057181, 95.941596, 79.416372, 46.420884, 41.383502, 29.196911, 22.759322, 13.642658, 13.642655, 7.115866, 5.812747, 2.845530, 2.094916, 0.852686, 0.616339];[-0.001054861896, 0.007790195408, 0.004899118623, -0.023392082271, -0.031941427520, 0.029457502819, 0.099050527959, -0.210151569683, -0.107918636945, 0.202897219794, 0.265784327064, -0.346122405430, -0.337570231754, 0.960673858706, 0.609470325368]
Einsteinium;Es;Actinide;Likely without hybridisation;99;0;99;1s^2 2s^2 2p^6 3s^2 3p^6 4s^2 3d^10 4p^6 5s^2 4d^10 5p^6 6s^2 4f^14 5d^10 6p^6 7s^2 5f^11;No special;4S;-30544,971971799;0,236;5;3;2;1;6;[2, 2, 3, 3, 4, 4, 3, 3, 3, 3, 3, 3];[94.620539, 53.578603, 48.286953, 32.337911, 30.388793, 17.224036, 17.059945, 12.319790, 7.027037, 5.502393, 2.501660, 1.703475];[-0.010879163744, -1.797220997953, -0.662785384092, -0.089568041935, 0.041163185230, 0.021169225204, -0.026431953916, -0.007485395705, 0.001271040228, -0.000618006262, 0.000071770049, -0.000029883775]
Einsteinium;Es;Actinide;Likely without hybridisation;99;0;99;1s^2 2s^2 2p^6 3s^2 3p^6 4s^2 3d^10 4p^6 5s^2 4d^10 5p^6 6s^2 4f^14 5d^10 6p^6 7s^2 5f^11;No special;4S;-30544,971971799;0,236;5;3;3;1;6;[2, 2, 3, 3, 4, 4, 3, 3, 3, 3, 3, 3];[94.620539, 53.578603, 48.286953, 32.337911, 30.388793, 17.224036, 17.059945, 12.319790, 7.027037, 5.502393, 2.501660, 1.703475];[-0.003605893850, -0.937936566899, -0.607615771564, 1.023604041367, 1.352924710040, -0.460373513840, 0.974292138610, 0.084493923932, -0.010872305172, 0.004378217966, -0.000441153103, 0.000179302649]
Einsteinium;Es;Actinide;Likely without hybridisation;99;0;99;1s^2 2s^2 2p^6 3s^2 3p^6 4s^2 3d^10 4p^6 5s^2 4d^10 5p^6 6s^2 4f^14 5d^10 6p^6 7s^2 5f^11;No special;4S;-30544,971971799;0,236;5;3;4;1;6;[2, 2, 3, 3, 4, 4, 3, 3, 3, 3, 3, 3];[94.620539, 53.578603, 48.286953, 32.337911, 30.388793, 17.224036, 17.059945, 12.319790, 7.027037, 5.502393, 2.501660, 1.703475];[0.001286961911, 0.497841153895, 0.335841700266, -0.545070500472, -1.106251539931, 1.981025319374, -2.082923847725, 2.533262536935, 0.066434815855, -0.015408025329, 0.001074591150, -0.000420577389]
Einsteinium;Es;Actinide;Likely without hybridisation;99;0;99;1s^2 2s^2 2p^6 3s^2 3p^6 4s^2 3d^10 4p^6 5s^2 4d^10 5p^6 6s^2 4f^14 5d^10 6p^6 7s^2 5f^11;No special;4S;-30544,971971799;0,236;5;3;5;1;6;[2, 2, 3, 3, 4, 4, 3, 3, 3, 3, 3, 3];[94.620539, 53.578603, 48.286953, 32.337911, 30.388793, 17.224036, 17.059945, 12.319790, 7.027037, 5.502393, 2.501660, 1.703475];[-0.000310840248, -0.247375193869, -0.159492890775, 0.284193474192, 0.706006630603, -0.157856631627, 1.712650894889, -4.672293416912, 2.282940117008, 1.718707258278, 0.024443948041, -0.005667139469]
Einsteinium;Es;Actinide;Likely without hybridisation;99;0;99;1s^2 2s^2 2p^6 3s^2 3p^6 4s^2 3d^10 4p^6 5s^2 4d^10 5p^6 6s^2 4f^14 5d^10 6p^6 7s^2 5f^11;No special;4S;-30544,971971799;0,236;5;3;6;1;6;[2, 2, 3, 3, 4, 4, 3, 3, 3, 3, 3, 3];[94.620539, 53.578603, 48.286953, 32.337911, 30.388793, 17.224036, 17.059945, 12.319790, 7.027037, 5.502393, 2.501660, 1.703475];[0.000193999588, 0.090159103810, 0.060068102115, -0.105361127051, -0.254305780147, 0.035875716671, -0.746273057638, 2.036637309749, -0.837846251876, -1.553858313232, 2.193595223589, 0.856387664484]
Einsteinium;Es;Actinide;Likely without hybridisation;99;0;99;1s^2 2s^2 2p^6 3s^2 3p^6 4s^2 3d^10 4p^6 5s^2 4d^10 5p^6 6s^2 4f^14 5d^10 6p^6 7s^2 5f^11;No special;4S;-30544,971971799;0,236;5;3;3;2;10;[3, 3, 4, 4, 4, 4, 4, 4, 4];[66.137520, 37.115763, 30.941761, 21.376642, 15.949616, 12.583516, 9.109259, 6.116274, 3.995607];[0.005841991749, 1.375389345086, 1.568456831756, 0.513159239759, -0.123939780791, 0.058124876988, -0.014426943141, 0.002765728042, -0.000548655174]
Einsteinium;Es;Actinide;Likely without hybridisation;99;0;99;1s^2 2s^2 2p^6 3s^2 3p^6 4s^2 3d^10 4p^6 5s^2 4d^10 5p^6 6s^2 4f^14 5d^10 6p^6 7s^2 5f^11;No special;4S;-30544,971971799;0,236;5;3;4;2;10;[3, 3, 4, 4, 4, 4, 4, 4, 4];[66.137520, 37.115763, 30.941761, 21.376642, 15.949616, 12.583516, 9.109259, 6.116274, 3.995607];[-0.002122204538, -0.788847554856, -1.035206693338, 0.041135856487, 2.112370486671, 1.308571683038, 0.135992485864, -0.004009451845, 0.001093831843]
Einsteinium;Es;Actinide;Likely without hybridisation;99;0;99;1s^2 2s^2 2p^6 3s^2 3p^6 4s^2 3d^10 4p^6 5s^2 4d^10 5p^6 6s^2 4f^14 5d^10 6p^6 7s^2 5f^11;No special;4S;-30544,971971799;0,236;5;3;5;2;10;[3, 3, 4, 4, 4, 4, 4, 4, 4];[66.137520, 37.115763, 30.941761, 21.376642, 15.949616, 12.583516, 9.109259, 6.116274, 3.995607];[0.001234236971, 0.365492257229, 0.514821965353, -0.143124686899, -0.853856394083, -1.900486183013, 1.562347627544, 2.487805261092, 0.390467926189]
Einsteinium;Es;Actinide;Likely without hybridisation;99;0;99;1s^2 2s^2 2p^6 3s^2 3p^6 4s^2 3d^10 4p^6 5s^2 4d^10 5p^6 6s^2 4f^14 5d^10 6p^6 7s^2 5f^11;No special;4S;-30544,971971799;0,236;5;3;4;3;14;[4, 4, 4, 5, 4, 4, 4, 4];[35.378820, 22.011322, 14.373323, 9.446536, 9.271063, 5.285284, 3.259830, 2.025012];[0.057918611353, 0.958172603583, 2.230972196842, -0.260946553645, 1.033527712524, 0.012697688508, -0.000761801444, 0.000564241934]
Einsteinium;Es;Actinide;Likely without hybridisation;99;0;99;1s^2 2s^2 2p^6 3s^2 3p^6 4s^2 3d^10 4p^6 5s^2 4d^10 5p^6 6s^2 4f^14 5d^10 6p^6 7s^2 5f^11;No special;4S;-30544,971971799;0,236;5;3;5;3;11;[4, 4, 4, 5, 4, 4, 4, 4];[35.378820, 22.011322, 14.373323, 9.446536, 9.271063, 5.285284, 3.259830, 2.025012];[-0.017481265945, -0.343629192942, -0.702980182377, 0.819594368318, -0.462676786492, 1.866903551468, 1.189869324826, 0.303292070579]
Fermium;Fm;Actinide;Likely without hybridisation;100;0;100;1s^2 2s^2 2p^6 3s^2 3p^6 4s^2 3d^10 4p^6 5s^2 4d^10 5p^6 6s^2 4f^14 5d^10 6p^6 7s^2 5f^12;No special;3P;-31282,777381624;0,239;5;3;1;0;2;[1, 1, 2, 2, 3, 3, 3, 4, 3, 3, 3, 3, 3, 3, 3];[114.194993, 96.939536, 80.272446, 46.871137, 41.840267, 29.525508, 22.997665, 13.929243, 13.927724, 7.220250, 5.896912, 2.884439, 2.118890, 0.860726, 0.620714];[0.199220264531, 1.218570975312, -0.004668177548, 0.004841277288, -0.004141807260, 0.004155100868, -0.003402456410, -0.001442497834, 0.002195283713, 0.000528774451, -0.000331491659, 0.000060528340, -0.000033658283, 0.000008061017, -0.000004666905]
Fermium;Fm;Actinide;Likely without hybridisation;100;0;100;1s^2 2s^2 2p^6 3s^2 3p^6 4s^2 3d^10 4p^6 5s^2 4d^10 5p^6 6s^2 4f^14 5d^10 6p^6 7s^2 5f^12;No special;3P;-31282,777381624;0,239;5;3;2;0;2;[1, 1, 2, 2, 3, 3, 3, 4, 3, 3, 3, 3, 3, 3, 3];[114.194993, 96.939536, 80.272446, 46.871137, 41.840267, 29.525508, 22.997665, 13.929243, 13.927724, 7.220250, 5.896912, 2.884439, 2.118890, 0.860726, 0.620714];[0.055840363932, -0.567409209860, -0.362902473611, 1.695228686661, 0.119430193921, -0.002403880213, 0.001839184738, 0.000787434112, -0.001505006073, -0.000130249069, 0.000090368247, -0.000017536248, 0.000008909545, -0.000002121320, 0.000001131371]