Element name;Symbol;clasificacion;Possible hybridization;Z;Q;N;Complete electronic configuration;Special configuration;Config;Energy;Ionization;Valence_n;Valence_l;n;l;mz;N_list;A_list;C_list
Silver;Ag;Transition metal;sp3d;47;0;47;1s^2 2s^2 2p^6 3s^2 3p^6 4s^2 3d^10 4p^6 5s^2 4d^9;No special;2P;-5197,698467674;0,2783;5;0;3;2;10;[3, 4, 3, 3, 3, 3, 3, 3, 3, 3, 3];[53.296212, 40.214567, 21.872645, 17.024065, 10.708021, 7.859216, 5.770205, 3.610289, 2.243262, 1.397570, 0.663294];[0.002101649733, 0.011767151401, -0.022866429761, 0.568964586084, 1.646079364113, 1.032680349715, 0.118227126197, 0.002350837213, 0.000551184996, -0.000149891961, 0.000026246905]
Silver;Ag;Transition metal;sp3d;47;0;47;1s^2 2s^2 2p^6 3s^2 3p^6 4s^2 3d^10 4p^6 5s^2 4d^9;No special;2P;-5197,698467674;0,2783;5;0;4;2;10;[3, 4, 3, 3, 3, 3, 3, 3, 3, 3, 3];[53.296212, 40.214567, 21.872645, 17.024065, 10.708021, 7.859216, 5.770205, 3.610289, 2.243262, 1.397570, 0.663294];[-0.000928444721, -0.005324959352, 0.029345620459, -0.235093524318, -0.372988752650, -0.888329963995, 0.522737146336, 1.534330796158, 1.365190050949, 0.549491280253, 0.004348448010]
Cadmium;Cd;Transition metal;sp3d;48;0;48;1s^2 2s^2 2p^6 3s^2 3p^6 4s^2 3d^10 4p^6 5s^2 4d^10;Full orbital;1S;-5465,133137188;0,3305;4;2;1;0;2;[1, 3, 1, 4, 3, 2, 4, 4, 2, 2, 2, 2, 2, 2];[83.516231, 62.584694, 50.503156, 37.421392, 23.543997, 23.541419, 13.502173, 10.284092, 9.381965, 5.195588, 3.843181, 2.816065, 0.968171, 0.727812];[-0.037126924389, 0.039405363859, 1.374979318355, -0.050110536262, -0.053241463668, 0.142326735760, -0.005711301472, -0.001273499313, 0.011478322958, -0.000064205296, 0.000012869343, 0.000004525483, -0.000001555635, 0.000000989949]
Cadmium;Cd;Transition metal;sp3d;48;0;48;1s^2 2s^2 2p^6 3s^2 3p^6 4s^2 3d^10 4p^6 5s^2 4d^10;Full orbital;1S;-5465,133137188;0,3305;4;2;2;0;2;[1, 3, 1, 4, 3, 2, 4, 4, 2, 2, 2, 2, 2, 2];[83.516231, 62.584694, 50.503156, 37.421392, 23.543997, 23.541419, 13.502173, 10.284092, 9.381965, 5.195588, 3.843181, 2.816065, 0.968171, 0.727812];[0.056476052928, -0.054916175369, -0.537966414863, 0.136442758812, 0.627632645886, 0.647341691777, -0.121884278716, -0.035416715928, 0.282939444682, -0.003189051583, 0.001912016736, -0.000586898628, 0.000058689863, -0.000034365390]
Cadmium;Cd;Transition metal;sp3d;48;0;48;1s^2 2s^2 2p^6 3s^2 3p^6 4s^2 3d^10 4p^6 5s^2 4d^10;Full orbital;1S;-5465,133137188;0,3305;4;2;3;0;2;[1, 3, 1, 4, 3, 2, 4, 4, 2, 2, 2, 2, 2, 2];[83.516231, 62.584694, 50.503156, 37.421392, 23.543997, 23.541419, 13.502173, 10.284092, 9.381965, 5.195588, 3.843181, 2.816065, 0.968171, 0.727812];[-0.024716351851, 0.024856500415, 0.234658052242, -0.045517736297, -0.586433493544, -0.358049882615, 0.719595559735, 0.368381136952, 0.597497593349, 0.058387079715, -0.009929334843, 0.003419002708, -0.000159381868, 0.000091075353]
Cadmium;Cd;Transition metal;sp3d;48;0;48;1s^2 2s^2 2p^6 3s^2 3p^6 4s^2 3d^10 4p^6 5s^2 4d^10;Full orbital;1S;-5465,133137188;0,3305;4;2;4;0;2;[1, 3, 1, 4, 3, 2, 4, 4, 2, 2, 2, 2, 2, 2];[83.516231, 62.584694, 50.503156, 37.421392, 23.543997, 23.541419, 13.502173, 10.284092, 9.381965, 5.195588, 3.843181, 2.816065, 0.968171, 0.727812];[0.010231693702, -0.010418935578, -0.098682832433, 0.015368965889, 0.300833206044, 0.169798824159, -0.351115569254, -0.726885547806, -0.625414593335, -0.420707887288, 2.126727871958, 0.349826372171, -0.000247345952, 0.000197848477]
Cadmium;Cd;Transition metal;sp3d;48;0;48;1s^2 2s^2 2p^6 3s^2 3p^6 4s^2 3d^10 4p^6 5s^2 4d^10;Full orbital;1S;-5465,133137188;0,3305;4;2;5;0;2;[1, 3, 1, 4, 3, 2, 4, 4, 2, 2, 2, 2, 2, 2];[83.516231, 62.584694, 50.503156, 37.421392, 23.543997, 23.541419, 13.502173, 10.284092, 9.381965, 5.195588, 3.843181, 2.816065, 0.968171, 0.727812];[-0.002408971382, 0.002505279326, 0.023408062884, -0.002960514671, -0.076557319828, -0.042474772975, 0.079513450438, 0.234888003367, 0.201342433403, -0.034284496550, -0.325511374129, -0.519322130363, 0.913967758753, 0.688090275677]
Cadmium;Cd;Transition metal;sp3d;48;0;48;1s^2 2s^2 2p^6 3s^2 3p^6 4s^2 3d^10 4p^6 5s^2 4d^10;Full orbital;1S;-5465,133137188;0,3305;4;2;2;1;6;[2, 3, 3, 2, 3, 3, 3, 2, 2, 2, 2];[60.437885, 53.012348, 34.580438, 24.629908, 19.895718, 11.175126, 8.476139, 4.269777, 3.164214, 2.145405, 0.727812];[-0.042443533518, -0.052798751406, -0.290275802173, 2.339282300276, 0.549971929447, 0.008338308033, -0.000002204541, -0.001562774456, 0.000816169982, -0.000246908566, 0.000012492398]
Cadmium;Cd;Transition metal;sp3d;48;0;48;1s^2 2s^2 2p^6 3s^2 3p^6 4s^2 3d^10 4p^6 5s^2 4d^10;Full orbital;1S;-5465,133137188;0,3305;4;2;3;1;6;[2, 3, 3, 2, 3, 3, 3, 2, 2, 2, 2];[60.437885, 53.012348, 34.580438, 24.629908, 19.895718, 11.175126, 8.476139, 4.269777, 3.164214, 2.145405, 0.727812];[0.066610689218, 0.080769964676, 0.378515240871, -1.505138942044, -0.264295534165, 1.965080610842, 0.813489505670, 0.027158227625, -0.000153338058, 0.000554319529, -0.000005143928]
Cadmium;Cd;Transition metal;sp3d;48;0;48;1s^2 2s^2 2p^6 3s^2 3p^6 4s^2 3d^10 4p^6 5s^2 4d^10;Full orbital;1S;-5465,133137188;0,3305;4;2;4;1;6;[2, 3, 3, 2, 3, 3, 3, 2, 2, 2, 2];[60.437885, 53.012348, 34.580438, 24.629908, 19.895718, 11.175126, 8.476139, 4.269777, 3.164214, 2.145405, 0.727812];[-0.043477708087, -0.052280439376, -0.244459566228, 0.736123351940, -0.008463232010, -0.885565496402, -1.674583374797, 0.725717674564, 2.602949050424, 0.288145480943, 0.002161429749]
Cadmium;Cd;Transition metal;sp3d;48;0;48;1s^2 2s^2 2p^6 3s^2 3p^6 4s^2 3d^10 4p^6 5s^2 4d^10;Full orbital;1S;-5465,133137188;0,3305;4;2;3;2;10;[3, 4, 3, 3, 3, 3, 3, 3, 3, 3, 3];[51.167417, 39.515824, 20.925917, 17.638488, 10.839796, 7.941688, 6.801382, 3.849955, 2.417483, 1.559278, 0.727812];[0.002866288471, 0.013635741271, -0.073662412044, 0.625318903810, 1.807900385223, 0.776779354622, 0.191078414021, 0.011442069258, -0.001866376275, 0.000520194675, -0.000067988970]
Cadmium;Cd;Transition metal;sp3d;48;0;48;1s^2 2s^2 2p^6 3s^2 3p^6 4s^2 3d^10 4p^6 5s^2 4d^10;Full orbital;1S;-5465,133137188;0,3305;4;2;4;2;10;[3, 4, 3, 3, 3, 3, 3, 3, 3, 3, 3];[51.167417, 39.515824, 20.925917, 17.638488, 10.839796, 7.941688, 6.801382, 3.849955, 2.417483, 1.559278, 0.727812];[-0.001264594836, -0.006165808982, 0.066407198408, -0.291644219487, -0.392966125541, -1.363343913251, 0.893442734516, 1.647977046937, 1.413244338501, 0.429025577700, 0.001235818110]
Indium;In;Post-transitional metal;sp;49;0;49;1s^2 2s^2 2p^6 3s^2 3p^6 4s^2 3d^10 4p^6 5s^2 4d^10 5p^1;No special;2S;-5740,169150772;0,2129;5;1;1;0;2;[1, 3, 1, 4, 3, 2, 2, 4, 4, 2, 2, 2, 2, 2];[78.931670, 59.837425, 50.067547, 35.479347, 23.025101, 23.015102, 17.915983, 13.827518, 10.265558, 3.763681, 2.140831, 1.711542, 0.959206, 0.628144];[-0.020104035739, 0.024749585870, 1.394286869015, -0.025258419909, -0.019787110479, 0.066640854329, 0.000584918729, 0.000315369624, -0.000199828376, 0.000116955462, -0.000161220346, 0.000126854957, -0.000027860007, 0.000008202439]
Indium;In;Post-transitional metal;sp;49;0;49;1s^2 2s^2 2p^6 3s^2 3p^6 4s^2 3d^10 4p^6 5s^2 4d^10 5p^1;No special;2S;-5740,169150772;0,2129;5;1;2;0;2;[1, 3, 1, 4, 3, 2, 2, 4, 4, 2, 2, 2, 2, 2];[78.931670, 59.837425, 50.067547, 35.479347, 23.025101, 23.015102, 17.915983, 13.827518, 10.265558, 3.763681, 2.140831, 1.711542, 0.959206, 0.628144];[0.077288609661, -0.067982943000, -0.590370239838, 0.152824301612, 0.268648958056, 0.727001089054, 0.425338871019, 0.004345736856, -0.000686459263, -0.000179039437, -0.000064205296, 0.000064063874, -0.000017394827, 0.000005515433]
Indium;In;Post-transitional metal;sp;49;0;49;1s^2 2s^2 2p^6 3s^2 3p^6 4s^2 3d^10 4p^6 5s^2 4d^10 5p^1;No special;2S;-5740,169150772;0,2129;5;1;3;0;2;[1, 3, 1, 4, 3, 2, 2, 4, 4, 2, 2, 2, 2, 2];[78.931670, 59.837425, 50.067547, 35.479347, 23.025101, 23.015102, 17.915983, 13.827518, 10.265558, 3.763681, 2.140831, 1.711542, 0.959206, 0.628144];[-0.033025563637, 0.029897464658, 0.256886802436, -0.040443679457, -0.812888682860, -1.018962509157, 1.143788917768, 1.051142938769, 0.427440675216, 0.015224008999, -0.006399882055, 0.004311230045, -0.000746987604, 0.000199545534]
Indium;In;Post-transitional metal;sp;49;0;49;1s^2 2s^2 2p^6 3s^2 3p^6 4s^2 3d^10 4p^6 5s^2 4d^10 5p^1;No special;2S;-5740,169150772;0,2129;5;1;4;0;2;[1, 3, 1, 4, 3, 2, 2, 4, 4, 2, 2, 2, 2, 2];[78.931670, 59.837425, 50.067547, 35.479347, 23.025101, 23.015102, 17.915983, 13.827518, 10.265558, 3.763681, 2.140831, 1.711542, 0.959206, 0.628144];[0.013145115062, -0.012128578354, -0.108062321043, 0.006131605742, 0.579959223856, 0.763925922325, -1.172567456656, -0.773223810812, -0.857724485377, 2.184474454350, 0.070582974634, -0.021401152418, 0.001644588952, -0.000284681190]
Indium;In;Post-transitional metal;sp;49;0;49;1s^2 2s^2 2p^6 3s^2 3p^6 4s^2 3d^10 4p^6 5s^2 4d^10 5p^1;No special;2S;-5740,169150772;0,2129;5;1;5;0;2;[1, 3, 1, 4, 3, 2, 2, 4, 4, 2, 2, 2, 2, 2];[78.931670, 59.837425, 50.067547, 35.479347, 23.025101, 23.015102, 17.915983, 13.827518, 10.265558, 3.763681, 2.140831, 1.711542, 0.959206, 0.628144];[-0.003553211575, 0.003158645992, 0.029141708930, -0.002817961944, -0.159460357332, -0.218121935899, 0.342465673422, 0.235038758533, 0.278658761650, -0.697122574858, -0.964280103291, 0.861626159174, 1.376447272033, 0.032959944127]
Indium;In;Post-transitional metal;sp;49;0;49;1s^2 2s^2 2p^6 3s^2 3p^6 4s^2 3d^10 4p^6 5s^2 4d^10 5p^1;No special;2S;-5740,169150772;0,2129;5;1;2;1;6;[2, 3, 3, 2, 3, 3, 3, 3, 2, 3, 2, 2, 2];[60.501482, 53.257212, 34.960599, 24.975942, 20.116604, 11.258653, 9.424572, 4.754638, 3.625842, 2.688752, 2.453862, 0.824472, 0.628144];[0.042585114025, 0.051515463729, 0.287041740865, -2.367023261511, -0.521659992153, 0.006887475259, -0.024006959071, -0.041900971540, 0.085166063918, 0.027477396139, -0.056435263878, 0.000120269946, -0.000067116019]
Indium;In;Post-transitional metal;sp;49;0;49;1s^2 2s^2 2p^6 3s^2 3p^6 4s^2 3d^10 4p^6 5s^2 4d^10 5p^1;No special;2S;-5740,169150772;0,2129;5;1;3;1;6;[2, 3, 3, 2, 3, 3, 3, 3, 2, 3, 2, 2, 2];[60.501482, 53.257212, 34.960599, 24.975942, 20.116604, 11.258653, 9.424572, 4.754638, 3.625842, 2.688752, 2.453862, 0.824472, 0.628144];[-0.075013418832, -0.088130436405, -0.411139259908, 1.596666085875, 0.253614534141, -1.968800650915, -0.426539446870, 0.926632661634, -2.104663804039, -0.772477453957, 1.556565489296, -0.000721619678, 0.000321373054]
Indium;In;Post-transitional metal;sp;49;0;49;1s^2 2s^2 2p^6 3s^2 3p^6 4s^2 3d^10 4p^6 5s^2 4d^10 5p^1;No special;2S;-5740,169150772;0,2129;5;1;4;1;6;[2, 3, 3, 2, 3, 3, 3, 3, 2, 3, 2, 2, 2];[60.501482, 53.257212, 34.960599, 24.975942, 20.116604, 11.258653, 9.424572, 4.754638, 3.625842, 2.688752, 2.453862, 0.824472, 0.628144];[-0.049716068564, -0.057956641957, -0.269501924613, 0.810406332931, 0.000134232038, -0.528464429710, -1.539114589521, 1.056689544272, 0.071880276502, -1.429046278031, 3.371387540744, 0.002562166271, -0.000411024379]
Indium;In;Post-transitional metal;sp;49;0;49;1s^2 2s^2 2p^6 3s^2 3p^6 4s^2 3d^10 4p^6 5s^2 4d^10 5p^1;No special;2S;-5740,169150772;0,2129;5;1;5;1;1;[2, 3, 3, 2, 3, 3, 3, 3, 2, 3, 2, 2, 2];[60.501482, 53.257212, 34.960599, 24.975942, 20.116604, 11.258653, 9.424572, 4.754638, 3.625842, 2.688752, 2.453862, 0.824472, 0.628144];[0.004482100000, 0.005217200000, 0.024269300000, -0.069140700000, 0.003588600000, 0.036312800000, 0.160601100000, -0.062129700000, -0.155520300000, -0.074297900000, -0.174322800000, 0.562661600000, 0.543613700000]
Indium;In;Post-transitional metal;sp;49;0;49;1s^2 2s^2 2p^6 3s^2 3p^6 4s^2 3d^10 4p^6 5s^2 4d^10 5p^1;No special;2S;-5740,169150772;0,2129;5;1;3;2;10;[3, 4, 3, 3, 3, 3, 3, 3, 3, 3, 3];[55.317221, 41.994493, 21.613292, 19.210472, 11.680393, 8.644928, 6.351845, 3.983040, 2.589850, 1.716691, 0.628144];[0.002352102124, 0.012772755697, -0.189227216679, 0.645921775222, 1.590765751965, 1.134331448874, 0.150167079248, 0.000566047701, 0.000991690274, -0.000298519011, 0.000022135944]
Indium;In;Post-transitional metal;sp;49;0;49;1s^2 2s^2 2p^6 3s^2 3p^6 4s^2 3d^10 4p^6 5s^2 4d^10 5p^1;No special;2S;-5740,169150772;0,2129;5;1;4;2;10;[3, 4, 3, 3, 3, 3, 3, 3, 3, 3, 3];[55.317221, 41.994493, 21.613292, 19.210472, 11.680393, 8.644928, 6.351845, 3.983040, 2.589850, 1.716691, 0.628144];[-0.001150120385, -0.006396022795, 0.135481778022, -0.334656255309, -0.380382790275, -1.038980239270, 0.526554964156, 1.661402812971, 1.416687110189, 0.325518221555, 0.000980306075]
Tin;Sn;Post-transitional metal;sp;50;0;50;1s^2 2s^2 2p^6 3s^2 3p^6 4s^2 3d^10 4p^6 5s^2 4d^10 5p^2;No special;1S;-6022,931689355;0,2695;5;1;1;0;2;[1, 3, 1, 4, 3, 2, 2, 4, 4, 2, 2, 2, 2, 2];[80.455846, 61.077522, 51.100199, 36.186771, 23.454426, 23.445269, 18.620156, 14.151788, 10.492947, 3.907598, 2.390486, 1.849969, 1.078565, 0.728067];[-0.020502843963, 0.024711119261, 1.394823563062, -0.025350626634, -0.019441335263, 0.066727262778, 0.000032526912, 0.000375473701, -0.000243103311, 0.000168574257, -0.000213121984, 0.000155704913, -0.000040022244, 0.000011737973]
Tin;Sn;Post-transitional metal;sp;50;0;50;1s^2 2s^2 2p^6 3s^2 3p^6 4s^2 3d^10 4p^6 5s^2 4d^10 5p^2;No special;1S;-6022,931689355;0,2695;5;1;2;0;2;[1, 3, 1, 4, 3, 2, 2, 4, 4, 2, 2, 2, 2, 2];[80.455846, 61.077522, 51.100199, 36.186771, 23.454426, 23.445269, 18.620156, 14.151788, 10.492947, 3.907598, 2.390486, 1.849969, 1.078565, 0.728067];[0.078222697719, -0.068128748418, -0.592511359171, 0.156508186521, 0.242766162859, 0.697475562563, 0.475589555846, 0.004931504113, -0.000917541759, -0.000094752309, -0.000171402684, 0.000142552727, -0.000039032294, 0.000012020815]
Tin;Sn;Post-transitional metal;sp;50;0;50;1s^2 2s^2 2p^6 3s^2 3p^6 4s^2 3d^10 4p^6 5s^2 4d^10 5p^2;No special;1S;-6022,931689355;0,2695;5;1;3;0;2;[1, 3, 1, 4, 3, 2, 2, 4, 4, 2, 2, 2, 2, 2];[80.455846, 61.077522, 51.100199, 36.186771, 23.454426, 23.445269, 18.620156, 14.151788, 10.492947, 3.907598, 2.390486, 1.849969, 1.078565, 0.728067];[-0.033542317272, 0.030049209773, 0.258921997174, -0.042182879296, -0.856433732659, -1.146962554424, 1.305271317652, 1.071267763447, 0.412316933958, 0.015064061445, -0.005490259892, 0.003117633798, -0.000610374574, 0.000154432121]
Tin;Sn;Post-transitional metal;sp;50;0;50;1s^2 2s^2 2p^6 3s^2 3p^6 4s^2 3d^10 4p^6 5s^2 4d^10 5p^2;No special;1S;-6022,931689355;0,2695;5;1;4;0;2;[1, 3, 1, 4, 3, 2, 2, 4, 4, 2, 2, 2, 2, 2];[80.455846, 61.077522, 51.100199, 36.186771, 23.454426, 23.445269, 18.620156, 14.151788, 10.492947, 3.907598, 2.390486, 1.849969, 1.078565, 0.728067];[0.013549580141, -0.012311860431, -0.110433391501, 0.007617519932, 0.627060879343, 0.898433754141, -1.349504948035, -0.818828804086, -0.869928017050, 2.249851001755, 0.022310208896, 0.005858521103, -0.001148482834, 0.000398242539]
Tin;Sn;Post-transitional metal;sp;50;0;50;1s^2 2s^2 2p^6 3s^2 3p^6 4s^2 3d^10 4p^6 5s^2 4d^10 5p^2;No special;1S;-6022,931689355;0,2695;5;1;5;0;2;[1, 3, 1, 4, 3, 2, 2, 4, 4, 2, 2, 2, 2, 2];[80.455846, 61.077522, 51.100199, 36.186771, 23.454426, 23.445269, 18.620156, 14.151788, 10.492947, 3.907598, 2.390486, 1.849969, 1.078565, 0.728067];[-0.004004911387, 0.003468641604, 0.032371348443, -0.004144494266, -0.182582183392, -0.273454738584, 0.416750210634, 0.271950298196, 0.304084907288, -0.720208762735, -1.075926324343, 0.885288214815, 1.401139299410, 0.034518266052]
Tin;Sn;Post-transitional metal;sp;50;0;50;1s^2 2s^2 2p^6 3s^2 3p^6 4s^2 3d^10 4p^6 5s^2 4d^10 5p^2;No special;1S;-6022,931689355;0,2695;5;1;2;1;6;[2, 3, 3, 2, 3, 3, 3, 3, 2, 2, 3, 2, 2];[61.677788, 54.522439, 35.964661, 25.612520, 20.778057, 11.733191, 9.474605, 4.444605, 3.619249, 2.253177, 2.247672, 0.955341, 0.728067];[0.039473282256, 0.046094497980, 0.261325282903, -2.314324939185, -0.539321792995, -0.003585073188, -0.006426726238, -0.012585233349, 0.017100867690, -0.000860750696, -0.000006368673, 0.000121004793, -0.000060992295]
Tin;Sn;Post-transitional metal;sp;50;0;50;1s^2 2s^2 2p^6 3s^2 3p^6 4s^2 3d^10 4p^6 5s^2 4d^10 5p^2;No special;1S;-6022,931689355;0,2695;5;1;3;1;6;[2, 3, 3, 2, 3, 3, 3, 3, 2, 2, 3, 2, 2];[61.677788, 54.522439, 35.964661, 25.612520, 20.778057, 11.733191, 9.474605, 4.444605, 3.619249, 2.253177, 2.247672, 0.955341, 0.728067];[0.067862868375, 0.076949740474, 0.363676721907, -1.510986608907, -0.276293869772, 1.901083772128, 0.733743182757, -0.384549558852, 0.588334368105, -0.084195821031, 0.029096998757, -0.001649731342, 0.000635642588]
Tin;Sn;Post-transitional metal;sp;50;0;50;1s^2 2s^2 2p^6 3s^2 3p^6 4s^2 3d^10 4p^6 5s^2 4d^10 5p^2;No special;1S;-6022,931689355;0,2695;5;1;4;1;6;[2, 3, 3, 2, 3, 3, 3, 3, 2, 2, 3, 2, 2];[61.677788, 54.522439, 35.964661, 25.612520, 20.778057, 11.733191, 9.474605, 4.444605, 3.619249, 2.253177, 2.247672, 0.955341, 0.728067];[-0.047162720457, -0.053032922625, -0.249676489482, 0.776100494236, -0.000250582801, -0.673404167076, -1.721778673467, 0.448221105328, 2.641414367650, 0.426075268564, -0.090430997171, 0.006821828934, -0.001886107102]
Tin;Sn;Post-transitional metal;sp;50;0;50;1s^2 2s^2 2p^6 3s^2 3p^6 4s^2 3d^10 4p^6 5s^2 4d^10 5p^2;No special;1S;-6022,931689355;0,2695;5;1;5;1;2;[2, 3, 3, 2, 3, 3, 3, 3, 2, 2, 3, 2, 2];[61.677788, 54.522439, 35.964661, 25.612520, 20.778057, 11.733191, 9.474605, 4.444605, 3.619249, 2.253177, 2.247672, 0.955341, 0.728067];[0.007337222804, 0.008225773186, 0.038806302994, -0.111646645316, 0.007997943381, 0.084239610742, 0.301680037125, 0.074966046728, -0.480702079295, -0.544677565323, 0.109752023407, 1.038990743049, 0.595376555849]
Tin;Sn;Post-transitional metal;sp;50;0;50;1s^2 2s^2 2p^6 3s^2 3p^6 4s^2 3d^10 4p^6 5s^2 4d^10 5p^2;No special;1S;-6022,931689355;0,2695;5;1;3;2;10;[3, 4, 3, 3, 3, 3, 3, 3, 3, 3, 3];[55.746534, 42.546716, 22.054380, 19.421508, 11.855840, 9.048137, 7.315308, 4.324680, 2.880503, 1.913171, 0.728067];[0.002394160417, 0.012425537610, -0.156405304389, 0.631381938768, 1.650078380442, 0.899400465628, 0.296659591856, 0.007771297350, -0.000588816100, 0.000015495161, -0.000006008328]
Tin;Sn;Post-transitional metal;sp;50;0;50;1s^2 2s^2 2p^6 3s^2 3p^6 4s^2 3d^10 4p^6 5s^2 4d^10 5p^2;No special;1S;-6022,931689355;0,2695;5;1;4;2;10;[3, 4, 3, 3, 3, 3, 3, 3, 3, 3, 3];[55.746534, 42.546716, 22.054380, 19.421508, 11.855840, 9.048137, 7.315308, 4.324680, 2.880503, 1.913171, 0.728067];[-0.001254159320, -0.006716677750, 0.130517950779, -0.351678479726, -0.339888876154, -1.233836626412, 0.529234362017, 1.649213813730, 1.526727099525, 0.329142191753, 0.001274714125]
Antimony;Sb;Metaloid;sp2;51;0;51;1s^2 2s^2 2p^6 3s^2 3p^6 4s^2 3d^10 4p^6 5s^2 4d^10 5p^3;Half orbital;2D;-6313,48531364;0,3176;5;1;1;0;2;[1, 3, 1, 4, 3, 2, 2, 4, 4, 2, 3, 2, 2, 2];[81.669053, 62.093595, 52.030871, 36.759376, 23.815342, 23.814678, 19.636087, 14.494462, 10.724371, 4.044819, 2.384963, 2.360123, 1.204949, 0.818182];[-0.019040688561, 0.023388405316, 1.395577763155, -0.024334797032, -0.017676255316, 0.064281097579, -0.001454518649, 0.000431759401, -0.000286802510, 0.000245224632, 0.000174513954, -0.000266437835, -0.000043982042, 0.000013152186]
Antimony;Sb;Metaloid;sp2;51;0;51;1s^2 2s^2 2p^6 3s^2 3p^6 4s^2 3d^10 4p^6 5s^2 4d^10 5p^3;Half orbital;2D;-6313,48531364;0,3176;5;1;2;0;2;[1, 3, 1, 4, 3, 2, 2, 4, 4, 2, 3, 2, 2, 2];[81.669053, 62.093595, 52.030871, 36.759376, 23.815342, 23.814678, 19.636087, 14.494462, 10.724371, 4.044819, 2.384963, 2.360123, 1.204949, 0.818182];[-0.080161584513, 0.068943476851, 0.597471996084, -0.160802587424, -0.177057982374, -0.604304203225, -0.627736873425, -0.005989760122, 0.001317622776, -0.000144391205, -0.000276195909, 0.000397535432, 0.000071983470, -0.000022203153]
Antimony;Sb;Metaloid;sp2;51;0;51;1s^2 2s^2 2p^6 3s^2 3p^6 4s^2 3d^10 4p^6 5s^2 4d^10 5p^3;Half orbital;2D;-6313,48531364;0,3176;5;1;3;0;2;[1, 3, 1, 4, 3, 2, 2, 4, 4, 2, 3, 2, 2, 2];[81.669053, 62.093595, 52.030871, 36.759376, 23.815342, 23.814678, 19.636087, 14.494462, 10.724371, 4.044819, 2.384963, 2.360123, 1.204949, 0.818182];[0.034378258909, -0.030384236966, -0.261930736528, 0.043058984598, 0.964445707699, 1.507683179351, -1.754142278085, -1.090814033357, -0.401214226123, -0.014275354541, -0.002083985106, 0.004425215658, 0.000269973369, -0.000055154329]