Element name;Symbol;clasificacion;Possible hybridization;Z;Q;N;Complete electronic configuration;Special configuration;Config;Energy;Ionization;Valence_n;Valence_l;n;l;mz;N_list;A_list;C_list
Platinum;Pt;Transition metal;sp3d;78;0;78;1s^2 2s^2 2p^6 3s^2 3p^6 4s^2 3d^10 4p^6 5s^2 4d^10 5p^6 6s^2 4f^14 5d^8;No special;2D;-17331,069712924;0,3309;5;2;5;0;2;[1, 1, 2, 2, 3, 3, 3, 3, 3, 3, 3, 3, 3];[96.326260, 76.585788, 63.520880, 36.406532, 33.061689, 23.311950, 18.635661, 9.434858, 7.795365, 4.597687, 3.229778, 1.315052, 0.814405];[-0.001577555229, 0.049102767678, 0.040538997451, -0.179144088800, -0.153580481604, -0.093118892014, 0.931636518737, -0.566329316384, -1.158163691523, 1.285729573226, 0.804903891665, 0.005135575130, -0.001571474111]
Platinum;Pt;Transition metal;sp3d;78;0;78;1s^2 2s^2 2p^6 3s^2 3p^6 4s^2 3d^10 4p^6 5s^2 4d^10 5p^6 6s^2 4f^14 5d^8;No special;2D;-17331,069712924;0,3309;5;2;6;0;1;[1, 1, 2, 2, 3, 3, 3, 3, 3, 3, 3, 3, 3];[96.326260, 76.585788, 63.520880, 36.406532, 33.061689, 23.311950, 18.635661, 9.434858, 7.795365, 4.597687, 3.229778, 1.315052, 0.814405];[0.000314100000, -0.008284400000, -0.006695700000, 0.029799800000, 0.026267300000, 0.015694300000, -0.158177600000, 0.073028300000, 0.255900900000, -0.288067900000, -0.198923200000, 0.468611000000, 0.636523700000]
Platinum;Pt;Transition metal;sp3d;78;0;78;1s^2 2s^2 2p^6 3s^2 3p^6 4s^2 3d^10 4p^6 5s^2 4d^10 5p^6 6s^2 4f^14 5d^8;No special;2D;-17331,069712924;0,3309;5;2;2;1;6;[2, 2, 3, 4, 3, 3, 3, 4, 3, 3];[71.132349, 40.899509, 36.308364, 29.162881, 20.835297, 14.228098, 10.647981, 8.812642, 3.881013, 2.545074];[0.019602776514, 1.873700681345, 0.616925302281, 0.040326929431, -0.018594811484, 0.006345648128, -0.003222303757, 0.000550155396, -0.000069075611, 0.000029393877]
Platinum;Pt;Transition metal;sp3d;78;0;78;1s^2 2s^2 2p^6 3s^2 3p^6 4s^2 3d^10 4p^6 5s^2 4d^10 5p^6 6s^2 4f^14 5d^8;No special;2D;-17331,069712924;0,3309;5;2;3;1;6;[2, 2, 3, 4, 3, 3, 3, 4, 3, 3];[71.132349, 40.899509, 36.308364, 29.162881, 20.835297, 14.228098, 10.647981, 8.812642, 3.881013, 2.545074];[-0.006812520873, -0.951932951289, -0.692719618443, -0.273986450434, 2.807836619959, 0.562299721425, -0.071882236094, 0.012029689076, -0.001470673642, 0.000368403257]
Platinum;Pt;Transition metal;sp3d;78;0;78;1s^2 2s^2 2p^6 3s^2 3p^6 4s^2 3d^10 4p^6 5s^2 4d^10 5p^6 6s^2 4f^14 5d^8;No special;2D;-17331,069712924;0,3309;5;2;4;1;6;[2, 2, 3, 4, 3, 3, 3, 4, 3, 3];[71.132349, 40.899509, 36.308364, 29.162881, 20.835297, 14.228098, 10.647981, 8.812642, 3.881013, 2.545074];[0.003663211910, 0.465356020926, 0.477040821846, 0.452281134577, -2.277905680740, -1.484441733513, 3.022862872488, 1.088508171082, 0.028647517389, -0.004337556437]
Platinum;Pt;Transition metal;sp3d;78;0;78;1s^2 2s^2 2p^6 3s^2 3p^6 4s^2 3d^10 4p^6 5s^2 4d^10 5p^6 6s^2 4f^14 5d^8;No special;2D;-17331,069712924;0,3309;5;2;5;1;6;[2, 2, 3, 4, 3, 3, 3, 4, 3, 3];[71.132349, 40.899509, 36.308364, 29.162881, 20.835297, 14.228098, 10.647981, 8.812642, 3.881013, 2.545074];[-0.001539259354, -0.179912817067, -0.209544539434, -0.245354364831, 1.069403865731, 0.543099396076, -1.389505634807, -1.164311795305, 2.307564592444, 0.873785410331]
Platinum;Pt;Transition metal;sp3d;78;0;78;1s^2 2s^2 2p^6 3s^2 3p^6 4s^2 3d^10 4p^6 5s^2 4d^10 5p^6 6s^2 4f^14 5d^8;No special;2D;-17331,069712924;0,3309;5;2;3;2;10;[3, 3, 4, 4, 4, 4, 4, 4, 4];[42.292119, 26.205977, 21.565757, 14.108561, 10.150504, 7.418553, 4.495700, 2.690771, 1.553534];[0.041818592234, 1.660054734005, 1.457760037351, 0.265458030638, -0.054710565799, 0.019922981715, -0.003825723513, 0.001144744513, -0.000323817232]
Platinum;Pt;Transition metal;sp3d;78;0;78;1s^2 2s^2 2p^6 3s^2 3p^6 4s^2 3d^10 4p^6 5s^2 4d^10 5p^6 6s^2 4f^14 5d^8;No special;2D;-17331,069712924;0,3309;5;2;4;2;10;[3, 3, 4, 4, 4, 4, 4, 4, 4];[42.292119, 26.205977, 21.565757, 14.108561, 10.150504, 7.418553, 4.495700, 2.690771, 1.553534];[-0.018115423804, -0.860047817514, -0.854438569400, 0.810916141963, 1.976784037258, 0.881918762267, 0.037946067011, -0.000870891268, 0.001305071990]
Platinum;Pt;Transition metal;sp3d;78;0;78;1s^2 2s^2 2p^6 3s^2 3p^6 4s^2 3d^10 4p^6 5s^2 4d^10 5p^6 6s^2 4f^14 5d^8;No special;2D;-17331,069712924;0,3309;5;2;5;2;9;[3, 3, 4, 4, 4, 4, 4, 4, 4];[42.292119, 26.205977, 21.565757, 14.108561, 10.150504, 7.418553, 4.495700, 2.690771, 1.553534];[0.004806300000, 0.239506500000, 0.245381700000, -0.289489500000, -0.632248800000, -0.412440900000, 1.361158800000, 1.644040200000, 0.653632500000]
Platinum;Pt;Transition metal;sp3d;78;0;78;1s^2 2s^2 2p^6 3s^2 3p^6 4s^2 3d^10 4p^6 5s^2 4d^10 5p^6 6s^2 4f^14 5d^8;No special;2D;-17331,069712924;0,3309;5;2;4;3;14;[4, 4, 4, 4, 4, 4];[25.359777, 15.274529, 10.107702, 6.937964, 4.649549, 2.821879];[0.081049911484, 0.898788759197, 1.524232608833, 1.300285808422, 0.442376527004, 0.027153955987]
Gold;Au;Transition metal;sp3d;79;0;79;1s^2 2s^2 2p^6 3s^2 3p^6 4s^2 3d^10 4p^6 5s^2 4d^10 5p^6 6s^2 4f^14 5d^9;No special;2P;-17865,399825117;0,339;5;2;1;0;2;[1, 1, 2, 2, 3, 3, 3, 3, 3, 3, 3, 3, 3];[97.761363, 77.616148, 64.400892, 36.850898, 33.489537, 23.594782, 18.894147, 9.575477, 8.034410, 4.758171, 3.330133, 1.328966, 0.813779];[0.076794766285, 1.333425905516, 0.005735908788, 0.002955989188, -0.002434992912, 0.001934361311, -0.001181151167, 0.000617869905, -0.000521279119, 0.000121198102, -0.000046951890, 0.000007636753, -0.000003535534]
Gold;Au;Transition metal;sp3d;79;0;79;1s^2 2s^2 2p^6 3s^2 3p^6 4s^2 3d^10 4p^6 5s^2 4d^10 5p^6 6s^2 4f^14 5d^9;No special;2P;-17865,399825117;0,339;5;2;2;0;2;[1, 1, 2, 2, 3, 3, 3, 3, 3, 3, 3, 3, 3];[97.761363, 77.616148, 64.400892, 36.850898, 33.489537, 23.594782, 18.894147, 9.575477, 8.034410, 4.758171, 3.330133, 1.328966, 0.813779];[0.026097331395, -0.517013143880, -0.353774856437, 1.630357154920, 0.153985653790, 0.009884080009, -0.002893056685, 0.000087964084, -0.000210010714, 0.000080751594, -0.000023758788, 0.000004101219, -0.000001838478]
Gold;Au;Transition metal;sp3d;79;0;79;1s^2 2s^2 2p^6 3s^2 3p^6 4s^2 3d^10 4p^6 5s^2 4d^10 5p^6 6s^2 4f^14 5d^9;No special;2P;-17865,399825117;0,339;5;2;3;0;2;[1, 1, 2, 2, 3, 3, 3, 3, 3, 3, 3, 3, 3];[97.761363, 77.616148, 64.400892, 36.850898, 33.489537, 23.594782, 18.894147, 9.575477, 8.034410, 4.758171, 3.330133, 1.328966, 0.813779];[-0.008468310811, 0.239593657574, 0.190616189218, -0.850393060849, -0.641955518003, 0.647572208587, 1.354663857689, 0.068999338287, -0.040706581758, 0.005542868636, -0.001967878172, 0.000269549105, -0.000119783889]
Gold;Au;Transition metal;sp3d;79;0;79;1s^2 2s^2 2p^6 3s^2 3p^6 4s^2 3d^10 4p^6 5s^2 4d^10 5p^6 6s^2 4f^14 5d^9;No special;2P;-17865,399825117;0,339;5;2;4;0;2;[1, 1, 2, 2, 3, 3, 3, 3, 3, 3, 3, 3, 3];[97.761363, 77.616148, 64.400892, 36.850898, 33.489537, 23.594782, 18.894147, 9.575477, 8.034410, 4.758171, 3.330133, 1.328966, 0.813779];[0.002206314579, -0.116170290238, -0.100004132164, 0.436456145255, 0.352521438957, 0.107925849434, -1.904194721115, 1.841976112596, 0.205608550035, 0.022970929472, -0.002715148618, 0.000445194429, -0.000190777410]
Gold;Au;Transition metal;sp3d;79;0;79;1s^2 2s^2 2p^6 3s^2 3p^6 4s^2 3d^10 4p^6 5s^2 4d^10 5p^6 6s^2 4f^14 5d^9;No special;2P;-17865,399825117;0,339;5;2;5;0;2;[1, 1, 2, 2, 3, 3, 3, 3, 3, 3, 3, 3, 3];[97.761363, 77.616148, 64.400892, 36.850898, 33.489537, 23.594782, 18.894147, 9.575477, 8.034410, 4.758171, 3.330133, 1.328966, 0.813779];[-0.001648265907, 0.049938143629, 0.041014173208, -0.181904633674, -0.158541259938, -0.089505576363, 0.945697195660, -0.502726758473, -1.267369262810, 1.291588801436, 0.828694075054, 0.005625600130, -0.000933098108]
Gold;Au;Transition metal;sp3d;79;0;79;1s^2 2s^2 2p^6 3s^2 3p^6 4s^2 3d^10 4p^6 5s^2 4d^10 5p^6 6s^2 4f^14 5d^9;No special;2P;-17865,399825117;0,339;5;2;6;0;1;[1, 1, 2, 2, 3, 3, 3, 3, 3, 3, 3, 3, 3];[97.761363, 77.616148, 64.400892, 36.850898, 33.489537, 23.594782, 18.894147, 9.575477, 8.034410, 4.758171, 3.330133, 1.328966, 0.813779];[0.000313800000, -0.008141000000, -0.006549500000, 0.029249700000, 0.026210100000, 0.014559600000, -0.155161200000, 0.054467300000, 0.273587000000, -0.284889300000, -0.189294600000, 0.455632900000, 0.645338700000]
Gold;Au;Transition metal;sp3d;79;0;79;1s^2 2s^2 2p^6 3s^2 3p^6 4s^2 3d^10 4p^6 5s^2 4d^10 5p^6 6s^2 4f^14 5d^9;No special;2P;-17865,399825117;0,339;5;2;2;1;6;[2, 2, 3, 4, 3, 3, 3, 4, 3, 3];[72.250241, 41.486656, 36.856869, 29.730268, 21.210778, 14.475122, 10.912089, 9.042813, 4.012662, 2.634539];[0.018971053109, 1.871032697117, 0.619599165284, 0.040232624076, -0.017692909361, 0.006095800174, -0.003161311462, 0.000521986264, -0.000060012499, 0.000026699438]
Gold;Au;Transition metal;sp3d;79;0;79;1s^2 2s^2 2p^6 3s^2 3p^6 4s^2 3d^10 4p^6 5s^2 4d^10 5p^6 6s^2 4f^14 5d^9;No special;2P;-17865,399825117;0,339;5;2;3;1;6;[2, 2, 3, 4, 3, 3, 3, 4, 3, 3];[72.250241, 41.486656, 36.856869, 29.730268, 21.210778, 14.475122, 10.912089, 9.042813, 4.012662, 2.634539];[-0.006659917662, -0.951752423895, -0.701903735284, -0.287683017280, 2.813611536976, 0.583041755618, -0.079566530366, 0.012837285844, -0.001591923384, 0.000384814839]
Gold;Au;Transition metal;sp3d;79;0;79;1s^2 2s^2 2p^6 3s^2 3p^6 4s^2 3d^10 4p^6 5s^2 4d^10 5p^6 6s^2 4f^14 5d^9;No special;2P;-17865,399825117;0,339;5;2;4;1;6;[2, 2, 3, 4, 3, 3, 3, 4, 3, 3];[72.250241, 41.486656, 36.856869, 29.730268, 21.210778, 14.475122, 10.912089, 9.042813, 4.012662, 2.634539];[0.003525550587, 0.467578932867, 0.480578129983, 0.446832489593, -2.253870062639, -1.577153695533, 3.054358166652, 1.122003228671, 0.030329581995, -0.004380912405]
Gold;Au;Transition metal;sp3d;79;0;79;1s^2 2s^2 2p^6 3s^2 3p^6 4s^2 3d^10 4p^6 5s^2 4d^10 5p^6 6s^2 4f^14 5d^9;No special;2P;-17865,399825117;0,339;5;2;5;1;6;[2, 2, 3, 4, 3, 3, 3, 4, 3, 3];[72.250241, 41.486656, 36.856869, 29.730268, 21.210778, 14.475122, 10.912089, 9.042813, 4.012662, 2.634539];[-0.001490269560, -0.183330100207, -0.213737331027, -0.245184615192, 1.073152319884, 0.583497850608, -1.407564742885, -1.228793388038, 2.320415105532, 0.891484198468]
Gold;Au;Transition metal;sp3d;79;0;79;1s^2 2s^2 2p^6 3s^2 3p^6 4s^2 3d^10 4p^6 5s^2 4d^10 5p^6 6s^2 4f^14 5d^9;No special;2P;-17865,399825117;0,339;5;2;3;2;10;[3, 3, 4, 4, 4, 4, 4, 4, 4];[43.833656, 26.923095, 22.141347, 14.590183, 10.636243, 7.807086, 4.671112, 2.813334, 1.632420];[0.034097575099, 1.615140271942, 1.487927533773, 0.294305592365, -0.059647513682, 0.020529190342, -0.003605312760, 0.001151701524, -0.000298835239]
Gold;Au;Transition metal;sp3d;79;0;79;1s^2 2s^2 2p^6 3s^2 3p^6 4s^2 3d^10 4p^6 5s^2 4d^10 5p^6 6s^2 4f^14 5d^9;No special;2P;-17865,399825117;0,339;5;2;4;2;10;[3, 3, 4, 4, 4, 4, 4, 4, 4];[43.833656, 26.923095, 22.141347, 14.590183, 10.636243, 7.807086, 4.671112, 2.813334, 1.632420];[-0.014711548131, -0.841448881455, -0.878629361045, 0.680081014735, 1.942542262299, 1.028793910471, 0.044427471303, -0.003752674899, 0.000887651339]
Gold;Au;Transition metal;sp3d;79;0;79;1s^2 2s^2 2p^6 3s^2 3p^6 4s^2 3d^10 4p^6 5s^2 4d^10 5p^6 6s^2 4f^14 5d^9;No special;2P;-17865,399825117;0,339;5;2;5;2;10;[3, 3, 4, 4, 4, 4, 4, 4, 4];[43.833656, 26.923095, 22.141347, 14.590183, 10.636243, 7.807086, 4.671112, 2.813334, 1.632420];[0.004260536692, 0.253585259163, 0.274228923957, -0.271526125240, -0.665754948251, -0.519879712243, 1.454912090090, 1.737244350551, 0.673448769798]
Gold;Au;Transition metal;sp3d;79;0;79;1s^2 2s^2 2p^6 3s^2 3p^6 4s^2 3d^10 4p^6 5s^2 4d^10 5p^6 6s^2 4f^14 5d^9;No special;2P;-17865,399825117;0,339;5;2;4;3;14;[4, 4, 4, 4, 4, 4];[25.916349, 15.690312, 10.503734, 7.320309, 4.940163, 3.007791];[0.078101859629, 0.875754742159, 1.474455469788, 1.327872300003, 0.468878686275, 0.029502968495]
Mercury;Hg;Transition metal;sp3d;80;0;80;1s^2 2s^2 2p^6 3s^2 3p^6 4s^2 3d^10 4p^6 5s^2 4d^10 5p^6 6s^2 4f^14 5d^10;Full orbital;3P;-18408,991254661;0,3835;5;2;1;0;2;[1, 1, 2, 2, 3, 3, 3, 3, 3, 3, 3, 3, 3];[98.407393, 78.536315, 65.150893, 37.330051, 33.891651, 23.937157, 19.164856, 9.688704, 8.234789, 5.007613, 3.538904, 1.429284, 0.889673];[0.081969232289, 1.328843005046, 0.004922311725, 0.003129088928, -0.002589425033, 0.002088086325, -0.001278166218, 0.000752220194, -0.000660296312, 0.000153866436, -0.000057699913, 0.000008909545, -0.000004101219]
Mercury;Hg;Transition metal;sp3d;80;0;80;1s^2 2s^2 2p^6 3s^2 3p^6 4s^2 3d^10 4p^6 5s^2 4d^10 5p^6 6s^2 4f^14 5d^10;Full orbital;3P;-18408,991254661;0,3835;5;2;2;0;2;[1, 1, 2, 2, 3, 3, 3, 3, 3, 3, 3, 3, 3];[98.407393, 78.536315, 65.150893, 37.330051, 33.891651, 23.937157, 19.164856, 9.688704, 8.234789, 5.007613, 3.538904, 1.429284, 0.889673];[0.027549021616, -0.519682754822, -0.354335592115, 1.634029726120, 0.152171924896, 0.009138789461, -0.002644579362, 0.000046669048, -0.000186817612, 0.000080327330, -0.000022061732, 0.000003676955, -0.000001697056]
Mercury;Hg;Transition metal;sp3d;80;0;80;1s^2 2s^2 2p^6 3s^2 3p^6 4s^2 3d^10 4p^6 5s^2 4d^10 5p^6 6s^2 4f^14 5d^10;Full orbital;3P;-18408,991254661;0,3835;5;2;3;0;2;[1, 1, 2, 2, 3, 3, 3, 3, 3, 3, 3, 3, 3];[98.407393, 78.536315, 65.150893, 37.330051, 33.891651, 23.937157, 19.164856, 9.688704, 8.234789, 5.007613, 3.538904, 1.429284, 0.889673];[-0.008946314996, 0.240931079340, 0.191441241410, -0.853876834538, -0.648881770346, 0.661568821635, 1.348719352401, 0.074782764650, -0.047118484628, 0.006468329992, -0.002202071938, 0.000282277027, -0.000125016479]
Mercury;Hg;Transition metal;sp3d;80;0;80;1s^2 2s^2 2p^6 3s^2 3p^6 4s^2 3d^10 4p^6 5s^2 4d^10 5p^6 6s^2 4f^14 5d^10;Full orbital;3P;-18408,991254661;0,3835;5;2;4;0;2;[1, 1, 2, 2, 3, 3, 3, 3, 3, 3, 3, 3, 3];[98.407393, 78.536315, 65.150893, 37.330051, 33.891651, 23.937157, 19.164856, 9.688704, 8.234789, 5.007613, 3.538904, 1.429284, 0.889673];[0.002426507630, -0.117242546961, -0.100706996305, 0.439569677833, 0.358682036077, 0.101392041354, -1.914198160748, 1.919104491860, 0.129346659420, 0.029521283850, -0.003687420443, 0.000538532525, -0.000221890108]
Mercury;Hg;Transition metal;sp3d;80;0;80;1s^2 2s^2 2p^6 3s^2 3p^6 4s^2 3d^10 4p^6 5s^2 4d^10 5p^6 6s^2 4f^14 5d^10;Full orbital;3P;-18408,991254661;0,3835;5;2;5;0;2;[1, 1, 2, 2, 3, 3, 3, 3, 3, 3, 3, 3, 3];[98.407393, 78.536315, 65.150893, 37.330051, 33.891651, 23.937157, 19.164856, 9.688704, 8.234789, 5.007613, 3.538904, 1.429284, 0.889673];[-0.001842861693, 0.051291404587, 0.041879530487, -0.185966113604, -0.164459460854, -0.087159254641, 0.965273871161, -0.447732094251, -1.399549864788, 1.226911158374, 0.946800989345, 0.005673683391, -0.001401909904]
Mercury;Hg;Transition metal;sp3d;80;0;80;1s^2 2s^2 2p^6 3s^2 3p^6 4s^2 3d^10 4p^6 5s^2 4d^10 5p^6 6s^2 4f^14 5d^10;Full orbital;3P;-18408,991254661;0,3835;5;2;6;0;2;[1, 1, 2, 2, 3, 3, 3, 3, 3, 3, 3, 3, 3];[98.407393, 78.536315, 65.150893, 37.330051, 33.891651, 23.937157, 19.164856, 9.688704, 8.234789, 5.007613, 3.538904, 1.429284, 0.889673];[0.000419597164, -0.013035230668, -0.010789176689, 0.047698453610, 0.041902016482, 0.025485542608, -0.253992614381, 0.073020654551, 0.468459373907, -0.410254303478, -0.379189971209, 0.767277325625, 0.816799831888]
Mercury;Hg;Transition metal;sp3d;80;0;80;1s^2 2s^2 2p^6 3s^2 3p^6 4s^2 3d^10 4p^6 5s^2 4d^10 5p^6 6s^2 4f^14 5d^10;Full orbital;3P;-18408,991254661;0,3835;5;2;2;1;6;[2, 2, 3, 4, 3, 3, 3, 4, 3, 3];[73.351279, 42.080191, 37.417209, 30.282585, 21.476918, 14.469768, 11.281557, 9.281333, 4.128865, 2.755971];[0.018404486131, 1.867604881171, 0.622852577560, 0.040597353099, -0.017221137637, 0.006669225723, -0.003789360632, 0.000562157896, -0.000063931682, 0.000028903979]
Mercury;Hg;Transition metal;sp3d;80;0;80;1s^2 2s^2 2p^6 3s^2 3p^6 4s^2 3d^10 4p^6 5s^2 4d^10 5p^6 6s^2 4f^14 5d^10;Full orbital;3P;-18408,991254661;0,3835;5;2;3;1;6;[2, 2, 3, 4, 3, 3, 3, 4, 3, 3];[73.351279, 42.080191, 37.417209, 30.282585, 21.476918, 14.469768, 11.281557, 9.281333, 4.128865, 2.755971];[-0.006460284248, -0.951438889208, -0.700386276389, -0.273699860134, 2.817611553726, 0.589029778243, -0.108170691786, 0.014417696626, -0.001795475981, 0.000456584888]
Mercury;Hg;Transition metal;sp3d;80;0;80;1s^2 2s^2 2p^6 3s^2 3p^6 4s^2 3d^10 4p^6 5s^2 4d^10 5p^6 6s^2 4f^14 5d^10;Full orbital;3P;-18408,991254661;0,3835;5;2;4;1;6;[2, 2, 3, 4, 3, 3, 3, 4, 3, 3];[73.351279, 42.080191, 37.417209, 30.282585, 21.476918, 14.469768, 11.281557, 9.281333, 4.128865, 2.755971];[0.003374906968, 0.469673981444, 0.477674259893, 0.426382924475, -2.250359698888, -1.792586318411, 3.232088978256, 1.174707429773, 0.032347961543, -0.005138294633]
Mercury;Hg;Transition metal;sp3d;80;0;80;1s^2 2s^2 2p^6 3s^2 3p^6 4s^2 3d^10 4p^6 5s^2 4d^10 5p^6 6s^2 4f^14 5d^10;Full orbital;3P;-18408,991254661;0,3835;5;2;5;1;6;[2, 2, 3, 4, 3, 3, 3, 4, 3, 3];[73.351279, 42.080191, 37.417209, 30.282585, 21.476918, 14.469768, 11.281557, 9.281333, 4.128865, 2.755971];[-0.001439320173, -0.187930241944, -0.216067775568, -0.238877179104, 1.090906956387, 0.673635398908, -1.485424713747, -1.314794727959, 2.378054293618, 0.863391980404]
Mercury;Hg;Transition metal;sp3d;80;0;80;1s^2 2s^2 2p^6 3s^2 3p^6 4s^2 3d^10 4p^6 5s^2 4d^10 5p^6 6s^2 4f^14 5d^10;Full orbital;3P;-18408,991254661;0,3835;5;2;3;2;10;[3, 3, 4, 4, 4, 4, 4, 4, 4];[45.619372, 27.639683, 22.702681, 14.977821, 11.080054, 8.180613, 4.964891, 3.064010, 1.838315];[0.027010594634, 1.573120558849, 1.517571673243, 0.324132827712, -0.070901427419, 0.023943817759, -0.004316509006, 0.001406581103, -0.000357969831]
Mercury;Hg;Transition metal;sp3d;80;0;80;1s^2 2s^2 2p^6 3s^2 3p^6 4s^2 3d^10 4p^6 5s^2 4d^10 5p^6 6s^2 4f^14 5d^10;Full orbital;3P;-18408,991254661;0,3835;5;2;4;2;10;[3, 3, 4, 4, 4, 4, 4, 4, 4];[45.619372, 27.639683, 22.702681, 14.977821, 11.080054, 8.180613, 4.964891, 3.064010, 1.838315];[-0.011457248191, -0.824170512548, -0.899128193521, 0.582764449565, 1.886867834269, 1.157173845324, 0.056295499362, -0.005073242050, 0.001110908142]
Mercury;Hg;Transition metal;sp3d;80;0;80;1s^2 2s^2 2p^6 3s^2 3p^6 4s^2 3d^10 4p^6 5s^2 4d^10 5p^6 6s^2 4f^14 5d^10;Full orbital;3P;-18408,991254661;0,3835;5;2;5;2;10;[3, 3, 4, 4, 4, 4, 4, 4, 4];[45.619372, 27.639683, 22.702681, 14.977821, 11.080054, 8.180613, 4.964891, 3.064010, 1.838315];[0.003653695609, 0.262301761306, 0.299491411500, -0.264121019644, -0.652333293178, -0.660703842144, 1.414985804808, 1.809164031376, 0.640407395438]
Mercury;Hg;Transition metal;sp3d;80;0;80;1s^2 2s^2 2p^6 3s^2 3p^6 4s^2 3d^10 4p^6 5s^2 4d^10 5p^6 6s^2 4f^14 5d^10;Full orbital;3P;-18408,991254661;0,3835;5;2;4;3;14;[4, 4, 4, 4, 4, 4];[26.289706, 15.957370, 10.811471, 7.904799, 5.582508, 3.629353];[0.079179082790, 0.889122561504, 1.366379192834, 1.236796991718, 0.600937116249, 0.062557892347]
Thallium;Tl;Post-transitional metal;sp;81;0;81;1s^2 2s^2 2p^6 3s^2 3p^6 4s^2 3d^10 4p^6 5s^2 4d^10 5p^6 6s^2 4f^14 5d^10 6p^1;No special;1D;-18961,824641669;0,2246;6;1;1;0;2;[1, 1, 2, 2, 3, 3, 3, 4, 3, 3, 3, 3, 3];[103.436743, 79.972778, 66.565494, 37.786246, 34.935192, 23.854182, 19.646005, 13.028118, 9.620853, 4.644696, 3.495830, 1.538362, 1.003827];[0.051317991802, 1.356148640508, 0.009363649418, 0.002148190401, -0.001818961484, 0.001557756239, -0.000981605634, 0.000469377481, -0.000408283455, 0.000073114841, -0.000043133514, 0.000008202439, -0.000003676955]
Thallium;Tl;Post-transitional metal;sp;81;0;81;1s^2 2s^2 2p^6 3s^2 3p^6 4s^2 3d^10 4p^6 5s^2 4d^10 5p^6 6s^2 4f^14 5d^10 6p^1;No special;1D;-18961,824641669;0,2246;6;1;2;0;2;[1, 1, 2, 2, 3, 3, 3, 4, 3, 3, 3, 3, 3];[103.436743, 79.972778, 66.565494, 37.786246, 34.935192, 23.854182, 19.646005, 13.028118, 9.620853, 4.644696, 3.495830, 1.538362, 1.003827];[-0.019165846461, 0.505476555323, 0.354530187901, -1.622730584021, -0.152682031728, -0.017400200829, 0.006781012610, -0.000999424725, 0.000968312026, -0.000177342381, 0.000091923882, -0.000016829141, 0.000007495332]