Element name;Symbol;clasificacion;Possible hybridization;Z;Q;N;Complete electronic configuration;Special configuration;Config;Energy;Ionization;Valence_n;Valence_l;n;l;mz;N_list;A_list;C_list
Nobelium;No;Actinide;Likely without hybridisation;102;0;102;1s^2 2s^2 2p^6 3s^2 3p^6 4s^2 3d^10 4p^6 5s^2 4d^10 5p^6 6s^2 4f^14 5d^10 6p^6 7s^2 5f^14;Full orbital;1S;-32789,511914766;0,2445;5;3;3;0;2;[1, 1, 2, 2, 3, 3, 3, 4, 3, 3, 3, 3, 3, 3, 3];[116.592615, 98.971720, 81.969966, 47.801013, 42.780237, 30.158811, 23.466434, 14.471178, 14.467021, 7.485979, 6.115088, 2.946806, 2.155517, 0.876639, 0.629030];[-0.016397099149, 0.262189679031, 0.207345062869, -0.918473867427, -0.770559573882, 1.339842899555, 0.860440058260, 0.014771177816, -0.023216012683, -0.004686562324, 0.002468085509, -0.000354684761, 0.000203222489, -0.000048931789, 0.000027577164]
Nobelium;No;Actinide;Likely without hybridisation;102;0;102;1s^2 2s^2 2p^6 3s^2 3p^6 4s^2 3d^10 4p^6 5s^2 4d^10 5p^6 6s^2 4f^14 5d^10 6p^6 7s^2 5f^14;Full orbital;1S;-32789,511914766;0,2445;5;3;4;0;2;[1, 1, 2, 2, 3, 3, 3, 4, 3, 3, 3, 3, 3, 3, 3];[116.592615, 98.971720, 81.969966, 47.801013, 42.780237, 30.158811, 23.466434, 14.471178, 14.467021, 7.485979, 6.115088, 2.946806, 2.155517, 0.876639, 0.629030];[0.009643522282, -0.140373848252, -0.110124102995, 0.489810887429, 0.522444855330, -0.443475311429, -1.994236850103, 0.360907018275, 2.090679568253, 0.062582344248, -0.020642568263, 0.001412940770, -0.000754765778, 0.000145098311, -0.000079337381]
Nobelium;No;Actinide;Likely without hybridisation;102;0;102;1s^2 2s^2 2p^6 3s^2 3p^6 4s^2 3d^10 4p^6 5s^2 4d^10 5p^6 6s^2 4f^14 5d^10 6p^6 7s^2 5f^14;Full orbital;1S;-32789,511914766;0,2445;5;3;5;0;2;[1, 1, 2, 2, 3, 3, 3, 4, 3, 3, 3, 3, 3, 3, 3];[116.592615, 98.971720, 81.969966, 47.801013, 42.780237, 30.158811, 23.466434, 14.471178, 14.467021, 7.485979, 6.115088, 2.946806, 2.155517, 0.876639, 0.629030];[-0.008367760227, 0.076300357224, 0.052434513409, -0.243209235968, -0.308740922600, 0.270164429309, 1.039800521735, -1.597545986059, -1.001914306084, 1.656104327037, 0.811159382516, 0.011699930223, -0.002644720783, 0.000448588542, -0.000237587878]
Nobelium;No;Actinide;Likely without hybridisation;102;0;102;1s^2 2s^2 2p^6 3s^2 3p^6 4s^2 3d^10 4p^6 5s^2 4d^10 5p^6 6s^2 4f^14 5d^10 6p^6 7s^2 5f^14;Full orbital;1S;-32789,511914766;0,2445;5;3;6;0;2;[1, 1, 2, 2, 3, 3, 3, 4, 3, 3, 3, 3, 3, 3, 3];[116.592615, 98.971720, 81.969966, 47.801013, 42.780237, 30.158811, 23.466434, 14.471178, 14.467021, 7.485979, 6.115088, 2.946806, 2.155517, 0.876639, 0.629030];[0.002934634563, -0.029866351960, -0.021287449648, 0.097555987066, 0.123000234638, -0.100577595764, -0.425532618277, 0.843569056146, 0.391848455385, -0.698885674906, -1.023467769303, 1.359599321600, 0.501942011367, -0.004094289684, 0.002051033930]
Nobelium;No;Actinide;Likely without hybridisation;102;0;102;1s^2 2s^2 2p^6 3s^2 3p^6 4s^2 3d^10 4p^6 5s^2 4d^10 5p^6 6s^2 4f^14 5d^10 6p^6 7s^2 5f^14;Full orbital;1S;-32789,511914766;0,2445;5;3;7;0;2;[1, 1, 2, 2, 3, 3, 3, 4, 3, 3, 3, 3, 3, 3, 3];[116.592615, 98.971720, 81.969966, 47.801013, 42.780237, 30.158811, 23.466434, 14.471178, 14.467021, 7.485979, 6.115088, 2.946806, 2.155517, 0.876639, 0.629030];[-0.001042982502, 0.007677058323, 0.004804649157, -0.023009820345, -0.031830128912, 0.030673867904, 0.092841847578, -0.227996540677, -0.080600556403, 0.194727590887, 0.253923459338, -0.332892861818, -0.325901414230, 0.933267672660, 0.632937785222]
Nobelium;No;Actinide;Likely without hybridisation;102;0;102;1s^2 2s^2 2p^6 3s^2 3p^6 4s^2 3d^10 4p^6 5s^2 4d^10 5p^6 6s^2 4f^14 5d^10 6p^6 7s^2 5f^14;Full orbital;1S;-32789,511914766;0,2445;5;3;2;1;6;[2, 2, 3, 3, 4, 4, 3, 3, 3, 3, 3, 3];[96.397692, 55.002426, 49.802487, 35.839240, 32.064262, 18.129395, 18.025153, 12.950104, 7.458310, 5.783785, 2.597180, 1.759335];[-0.011595639493, -1.816339755293, -0.631716301144, -0.088804780931, 0.026824852071, 0.014990387328, -0.018629349290, -0.005353849731, 0.000871038553, -0.000408329940, 0.000047275152, -0.000019840867]
Nobelium;No;Actinide;Likely without hybridisation;102;0;102;1s^2 2s^2 2p^6 3s^2 3p^6 4s^2 3d^10 4p^6 5s^2 4d^10 5p^6 6s^2 4f^14 5d^10 6p^6 7s^2 5f^14;Full orbital;1S;-32789,511914766;0,2445;5;3;3;1;6;[2, 2, 3, 3, 4, 4, 3, 3, 3, 3, 3, 3];[96.397692, 55.002426, 49.802487, 35.839240, 32.064262, 18.129395, 18.025153, 12.950104, 7.458310, 5.783785, 2.597180, 1.759335];[-0.003963029455, -0.950986223504, -0.600202145909, 0.791127623910, 1.521522109240, -0.496563744994, 1.077675302694, 0.093746136589, -0.012094110656, 0.004669952195, -0.000481079785, 0.000198163720]
Nobelium;No;Actinide;Likely without hybridisation;102;0;102;1s^2 2s^2 2p^6 3s^2 3p^6 4s^2 3d^10 4p^6 5s^2 4d^10 5p^6 6s^2 4f^14 5d^10 6p^6 7s^2 5f^14;Full orbital;1S;-32789,511914766;0,2445;5;3;4;1;6;[2, 2, 3, 3, 4, 4, 3, 3, 3, 3, 3, 3];[96.397692, 55.002426, 49.802487, 35.839240, 32.064262, 18.129395, 18.025153, 12.950104, 7.458310, 5.783785, 2.597180, 1.759335];[0.001455486805, 0.508660550088, 0.332020741216, -0.390793063257, -1.137814195063, 2.043579898527, -2.407098628346, 2.655686809535, 0.070510521838, -0.014527188818, 0.001058424518, -0.000415433460]
Nobelium;No;Actinide;Likely without hybridisation;102;0;102;1s^2 2s^2 2p^6 3s^2 3p^6 4s^2 3d^10 4p^6 5s^2 4d^10 5p^6 6s^2 4f^14 5d^10 6p^6 7s^2 5f^14;Full orbital;1S;-32789,511914766;0,2445;5;3;5;1;6;[2, 2, 3, 3, 4, 4, 3, 3, 3, 3, 3, 3];[96.397692, 55.002426, 49.802487, 35.839240, 32.064262, 18.129395, 18.025153, 12.950104, 7.458310, 5.783785, 2.597180, 1.759335];[-0.000381140604, -0.255635853077, -0.158300724117, 0.201256200991, 0.720489973555, -0.172193984989, 1.959137413879, -4.894347500463, 2.273181839771, 1.786817280168, 0.023610631631, -0.005472405034]
Nobelium;No;Actinide;Likely without hybridisation;102;0;102;1s^2 2s^2 2p^6 3s^2 3p^6 4s^2 3d^10 4p^6 5s^2 4d^10 5p^6 6s^2 4f^14 5d^10 6p^6 7s^2 5f^14;Full orbital;1S;-32789,511914766;0,2445;5;3;6;1;6;[2, 2, 3, 3, 4, 4, 3, 3, 3, 3, 3, 3];[96.397692, 55.002426, 49.802487, 35.839240, 32.064262, 18.129395, 18.025153, 12.950104, 7.458310, 5.783785, 2.597180, 1.759335];[0.000245683821, 0.091447290465, 0.059262464939, -0.073893267173, -0.252349617638, 0.039820864850, -0.833847459871, 2.101601941860, -0.860709544186, -1.499633713847, 2.137740733729, 0.882921027276]
Nobelium;No;Actinide;Likely without hybridisation;102;0;102;1s^2 2s^2 2p^6 3s^2 3p^6 4s^2 3d^10 4p^6 5s^2 4d^10 5p^6 6s^2 4f^14 5d^10 6p^6 7s^2 5f^14;Full orbital;1S;-32789,511914766;0,2445;5;3;3;2;10;[3, 3, 4, 4, 4, 4, 4, 4, 4];[67.827414, 38.426897, 32.165816, 22.509172, 16.602324, 13.180192, 9.669792, 6.431985, 4.179803];[0.005702851532, 1.369021150334, 1.551865625784, 0.523328176031, -0.109916028051, 0.054367458672, -0.013656296075, 0.002253755288, -0.000467384638]
Nobelium;No;Actinide;Likely without hybridisation;102;0;102;1s^2 2s^2 2p^6 3s^2 3p^6 4s^2 3d^10 4p^6 5s^2 4d^10 5p^6 6s^2 4f^14 5d^10 6p^6 7s^2 5f^14;Full orbital;1S;-32789,511914766;0,2445;5;3;4;2;10;[3, 3, 4, 4, 4, 4, 4, 4, 4];[67.827414, 38.426897, 32.165816, 22.509172, 16.602324, 13.180192, 9.669792, 6.431985, 4.179803];[-0.002071291867, -0.793393961448, -1.038694369370, -0.008368019144, 2.203673664642, 1.247887890967, 0.144505021098, -0.002872613026, 0.001220639177]
Nobelium;No;Actinide;Likely without hybridisation;102;0;102;1s^2 2s^2 2p^6 3s^2 3p^6 4s^2 3d^10 4p^6 5s^2 4d^10 5p^6 6s^2 4f^14 5d^10 6p^6 7s^2 5f^14;Full orbital;1S;-32789,511914766;0,2445;5;3;5;2;10;[3, 3, 4, 4, 4, 4, 4, 4, 4];[67.827414, 38.426897, 32.165816, 22.509172, 16.602324, 13.180192, 9.669792, 6.431985, 4.179803];[0.001225382593, 0.373691094519, 0.525657509756, -0.111052866870, -0.910223360920, -2.012415633250, 1.687620308368, 2.492496816228, 0.369708838261]
Nobelium;No;Actinide;Likely without hybridisation;102;0;102;1s^2 2s^2 2p^6 3s^2 3p^6 4s^2 3d^10 4p^6 5s^2 4d^10 5p^6 6s^2 4f^14 5d^10 6p^6 7s^2 5f^14;Full orbital;1S;-32789,511914766;0,2445;5;3;4;3;14;[4, 4, 4, 5, 4, 4, 4, 4];[37.081617, 23.121378, 15.134123, 10.033310, 10.032716, 5.628460, 3.475147, 2.163825];[0.051950667821, 0.929753219067, 2.276142607312, -0.149621395582, 0.903748700229, 0.010558957145, -0.001366079112, 0.000277630978]
Nobelium;No;Actinide;Likely without hybridisation;102;0;102;1s^2 2s^2 2p^6 3s^2 3p^6 4s^2 3d^10 4p^6 5s^2 4d^10 5p^6 6s^2 4f^14 5d^10 6p^6 7s^2 5f^14;Full orbital;1S;-32789,511914766;0,2445;5;3;5;3;14;[4, 4, 4, 5, 4, 4, 4, 4];[37.081617, 23.121378, 15.134123, 10.033310, 10.032716, 5.628460, 3.475147, 2.163825];[-0.018162379121, -0.390598349589, -0.845843933009, 0.952078566197, -0.492047402979, 2.129781691977, 1.293037095567, 0.320854230065]
Lawrencium;Lr;Actinide;sp3d;103;0;103;1s^2 2s^2 2p^6 3s^2 3p^6 4s^2 3d^10 4p^6 5s^2 4d^10 5p^6 6s^2 4f^14 5d^10 6p^6 7s^2 5f^14 6d^1;No special;2S;-33557,950142251;0,0;6;2;1;0;2;[1, 1, 2, 2, 3, 3, 3, 4, 3, 3, 3, 3, 3, 3, 3];[117.771093, 99.975056, 82.875749, 48.243474, 43.330365, 30.477612, 23.820947, 14.780478, 14.778913, 7.443722, 6.074548, 3.060811, 2.252852, 0.959509, 0.673296];[0.190762984586, 1.226795899969, -0.004393961538, 0.004787112909, -0.004141241575, 0.004263995312, -0.003650368047, -0.001480823021, 0.002383798381, 0.000491156370, -0.000322016428, 0.000065902352, -0.000036345289, 0.000008343860, -0.000004384062]
Lawrencium;Lr;Actinide;sp3d;103;0;103;1s^2 2s^2 2p^6 3s^2 3p^6 4s^2 3d^10 4p^6 5s^2 4d^10 5p^6 6s^2 4f^14 5d^10 6p^6 7s^2 5f^14 6d^1;No special;2S;-33557,950142251;0,0;6;2;2;0;2;[1, 1, 2, 2, 3, 3, 3, 4, 3, 3, 3, 3, 3, 3, 3];[117.771093, 99.975056, 82.875749, 48.243474, 43.330365, 30.477612, 23.820947, 14.780478, 14.778913, 7.443722, 6.074548, 3.060811, 2.252852, 0.959509, 0.673296];[0.054693153890, -0.565695183023, -0.363566588300, 1.700218032109, 0.111421078253, 0.000418182950, 0.000322016428, 0.000338986991, -0.000799030663, 0.000012303658, 0.000004384062, -0.000003394113, 0.000001131371, -0.000000282843, 0.000000141421]
Lawrencium;Lr;Actinide;sp3d;103;0;103;1s^2 2s^2 2p^6 3s^2 3p^6 4s^2 3d^10 4p^6 5s^2 4d^10 5p^6 6s^2 4f^14 5d^10 6p^6 7s^2 5f^14 6d^1;No special;2S;-33557,950142251;0,0;6;2;3;0;2;[1, 1, 2, 2, 3, 3, 3, 4, 3, 3, 3, 3, 3, 3, 3];[117.771093, 99.975056, 82.875749, 48.243474, 43.330365, 30.477612, 23.820947, 14.780478, 14.778913, 7.443722, 6.074548, 3.060811, 2.252852, 0.959509, 0.673296];[-0.016419302302, 0.262417933100, 0.206391600085, -0.917781327045, -0.765566410057, 1.321170896470, 0.871320875987, 0.012141447697, -0.018769866664, -0.004029235861, 0.002232901794, -0.000372928116, 0.000211000664, -0.000047234733, 0.000024607316]
Lawrencium;Lr;Actinide;sp3d;103;0;103;1s^2 2s^2 2p^6 3s^2 3p^6 4s^2 3d^10 4p^6 5s^2 4d^10 5p^6 6s^2 4f^14 5d^10 6p^6 7s^2 5f^14 6d^1;No special;2S;-33557,950142251;0,0;6;2;4;0;2;[1, 1, 2, 2, 3, 3, 3, 4, 3, 3, 3, 3, 3, 3, 3];[117.771093, 99.975056, 82.875749, 48.243474, 43.330365, 30.477612, 23.820947, 14.780478, 14.778913, 7.443722, 6.074548, 3.060811, 2.252852, 0.959509, 0.673296];[0.009565881957, -0.140655701015, -0.109942093710, 0.490604544080, 0.518756303517, -0.413401777182, -2.015804455457, 0.450560662797, 1.999962293710, 0.066607620310, -0.025077117731, 0.002319027400, -0.001201515843, 0.000224294271, -0.000113702770]
Lawrencium;Lr;Actinide;sp3d;103;0;103;1s^2 2s^2 2p^6 3s^2 3p^6 4s^2 3d^10 4p^6 5s^2 4d^10 5p^6 6s^2 4f^14 5d^10 6p^6 7s^2 5f^14 6d^1;No special;2S;-33557,950142251;0,0;6;2;5;0;2;[1, 1, 2, 2, 3, 3, 3, 4, 3, 3, 3, 3, 3, 3, 3];[117.771093, 99.975056, 82.875749, 48.243474, 43.330365, 30.477612, 23.820947, 14.780478, 14.778913, 7.443722, 6.074548, 3.060811, 2.252852, 0.959509, 0.673296];[-0.008468027969, 0.076926429568, 0.052453039607, -0.244419519934, -0.309072555680, 0.260686511436, 1.035832804164, -1.682787567110, -0.895225610675, 1.872614625160, 0.580103473639, 0.010830188882, -0.002254539261, 0.000372079588, -0.000179746544]
Lawrencium;Lr;Actinide;sp3d;103;0;103;1s^2 2s^2 2p^6 3s^2 3p^6 4s^2 3d^10 4p^6 5s^2 4d^10 5p^6 6s^2 4f^14 5d^10 6p^6 7s^2 5f^14 6d^1;No special;2S;-33557,950142251;0,0;6;2;6;0;2;[1, 1, 2, 2, 3, 3, 3, 4, 3, 3, 3, 3, 3, 3, 3];[117.771093, 99.975056, 82.875749, 48.243474, 43.330365, 30.477612, 23.820947, 14.780478, 14.778913, 7.443722, 6.074548, 3.060811, 2.252852, 0.959509, 0.673296];[0.003070681908, -0.030752215335, -0.021664761826, 0.099863842179, 0.125856238927, -0.099877984314, -0.428240554407, 0.906263264686, 0.344943941268, -0.837969477546, -0.959487616370, 1.409187871636, 0.501456087587, -0.002130654153, 0.001134057856]
Lawrencium;Lr;Actinide;sp3d;103;0;103;1s^2 2s^2 2p^6 3s^2 3p^6 4s^2 3d^10 4p^6 5s^2 4d^10 5p^6 6s^2 4f^14 5d^10 6p^6 7s^2 5f^14 6d^1;No special;2S;-33557,950142251;0,0;6;2;7;0;2;[1, 1, 2, 2, 3, 3, 3, 4, 3, 3, 3, 3, 3, 3, 3];[117.771093, 99.975056, 82.875749, 48.243474, 43.330365, 30.477612, 23.820947, 14.780478, 14.778913, 7.443722, 6.074548, 3.060811, 2.252852, 0.959509, 0.673296];[-0.001026860468, 0.008149829917, 0.005250126429, -0.024938100538, -0.033550802554, 0.030198692147, 0.101049943094, -0.250987976246, -0.076297811640, 0.231061848574, 0.263719575263, -0.375474832181, -0.344442743982, 0.861810714044, 0.723959539945]
Lawrencium;Lr;Actinide;sp3d;103;0;103;1s^2 2s^2 2p^6 3s^2 3p^6 4s^2 3d^10 4p^6 5s^2 4d^10 5p^6 6s^2 4f^14 5d^10 6p^6 7s^2 5f^14 6d^1;No special;2S;-33557,950142251;0,0;6;2;2;1;6;[2, 2, 3, 3, 4, 4, 3, 3, 3, 3, 3, 3];[96.977915, 55.479157, 50.301898, 36.356365, 32.536565, 18.618274, 18.581159, 13.274625, 7.476445, 5.884212, 2.671872, 1.800258];[-0.011846467243, -1.822294954756, -0.623118347197, -0.090604421045, 0.027941084547, 0.015349482524, -0.019831068958, -0.005295306926, 0.000864179981, -0.000436988970, 0.000049479693, -0.000020330765]
Lawrencium;Lr;Actinide;sp3d;103;0;103;1s^2 2s^2 2p^6 3s^2 3p^6 4s^2 3d^10 4p^6 5s^2 4d^10 5p^6 6s^2 4f^14 5d^10 6p^6 7s^2 5f^14 6d^1;No special;2S;-33557,950142251;0,0;6;2;3;1;6;[2, 2, 3, 3, 4, 4, 3, 3, 3, 3, 3, 3];[96.977915, 55.479157, 50.301898, 36.356365, 32.536565, 18.618274, 18.581159, 13.274625, 7.476445, 5.884212, 2.671872, 1.800258];[-0.004008589964, -0.955401428765, -0.594751786282, 0.765365850387, 1.506692898337, -0.475130219846, 1.103610989989, 0.084271755213, -0.010693002523, 0.004437250669, -0.000436254123, 0.000175383466]
Lawrencium;Lr;Actinide;sp3d;103;0;103;1s^2 2s^2 2p^6 3s^2 3p^6 4s^2 3d^10 4p^6 5s^2 4d^10 5p^6 6s^2 4f^14 5d^10 6p^6 7s^2 5f^14 6d^1;No special;2S;-33557,950142251;0,0;6;2;4;1;6;[2, 2, 3, 3, 4, 4, 3, 3, 3, 3, 3, 3];[96.977915, 55.479157, 50.301898, 36.356365, 32.536565, 18.618274, 18.581159, 13.274625, 7.476445, 5.884212, 2.671872, 1.800258];[0.001521133130, 0.512113840728, 0.330691648082, -0.367339198970, -1.104538856703, 1.868351240696, -2.541645670631, 2.891424722584, 0.079668674088, -0.020035111453, 0.001371714256, -0.000532029172]
Lawrencium;Lr;Actinide;sp3d;103;0;103;1s^2 2s^2 2p^6 3s^2 3p^6 4s^2 3d^10 4p^6 5s^2 4d^10 5p^6 6s^2 4f^14 5d^10 6p^6 7s^2 5f^14 6d^1;No special;2S;-33557,950142251;0,0;6;2;5;1;6;[2, 2, 3, 3, 4, 4, 3, 3, 3, 3, 3, 3];[96.977915, 55.479157, 50.301898, 36.356365, 32.536565, 18.618274, 18.581159, 13.274625, 7.476445, 5.884212, 2.671872, 1.800258];[-0.000326761932, -0.259097227033, -0.156248051713, 0.192521565518, 0.725711060941, 0.038453314727, 1.983395200700, -5.084034516450, 2.328927817235, 1.699601728183, 0.022074066715, -0.004969034892]
Lawrencium;Lr;Actinide;sp3d;103;0;103;1s^2 2s^2 2p^6 3s^2 3p^6 4s^2 3d^10 4p^6 5s^2 4d^10 5p^6 6s^2 4f^14 5d^10 6p^6 7s^2 5f^14 6d^1;No special;2S;-33557,950142251;0,0;6;2;6;1;6;[2, 2, 3, 3, 4, 4, 3, 3, 3, 3, 3, 3];[96.977915, 55.479157, 50.301898, 36.356365, 32.536565, 18.618274, 18.581159, 13.274625, 7.476445, 5.884212, 2.671872, 1.800258];[0.000254991882, 0.095168555283, 0.060624381236, -0.072978872652, -0.258888040609, -0.039514433684, -0.869844916182, 2.230324587435, -0.863232028723, -1.587670089845, 2.311812007657, 0.757214438421]
Lawrencium;Lr;Actinide;sp3d;103;0;103;1s^2 2s^2 2p^6 3s^2 3p^6 4s^2 3d^10 4p^6 5s^2 4d^10 5p^6 6s^2 4f^14 5d^10 6p^6 7s^2 5f^14 6d^1;No special;2S;-33557,950142251;0,0;6;2;3;2;10;[3, 3, 4, 4, 4, 4, 4, 4, 4, 4, 4];[68.265620, 39.089308, 32.844237, 23.518016, 17.207131, 13.500854, 9.062463, 6.166057, 3.792907, 2.132066, 1.176556];[0.005476116224, 1.340967004072, 1.524606159898, 0.554462696962, -0.065583425078, 0.028961403723, -0.006613271271, 0.001706997481, -0.000507229337, 0.000140088900, -0.000039212243]
Lawrencium;Lr;Actinide;sp3d;103;0;103;1s^2 2s^2 2p^6 3s^2 3p^6 4s^2 3d^10 4p^6 5s^2 4d^10 5p^6 6s^2 4f^14 5d^10 6p^6 7s^2 5f^14 6d^1;No special;2S;-33557,950142251;0,0;6;2;4;2;10;[3, 3, 4, 4, 4, 4, 4, 4, 4, 4, 4];[68.265620, 39.089308, 32.844237, 23.518016, 17.207131, 13.500854, 9.062463, 6.166057, 3.792907, 2.132066, 1.176556];[-0.002016584464, -0.779319612266, -1.021717681751, -0.122820650727, 2.074721673761, 1.494110102826, 0.110107345849, -0.010105374491, 0.002709755727, -0.000695701085, 0.000185625699]
Lawrencium;Lr;Actinide;sp3d;103;0;103;1s^2 2s^2 2p^6 3s^2 3p^6 4s^2 3d^10 4p^6 5s^2 4d^10 5p^6 6s^2 4f^14 5d^10 6p^6 7s^2 5f^14 6d^1;No special;2S;-33557,950142251;0,0;6;2;5;2;10;[3, 3, 4, 4, 4, 4, 4, 4, 4, 4, 4];[68.265620, 39.089308, 32.844237, 23.518016, 17.207131, 13.500854, 9.062463, 6.166057, 3.792907, 2.132066, 1.176556];[0.001151701524, 0.370516167748, 0.519310818492, -0.021622073501, -0.979270744946, -1.837855376587, 1.978397431321, 2.199224023747, 0.181268712492, -0.006061137591, 0.001625410717]
Lawrencium;Lr;Actinide;sp3d;103;0;103;1s^2 2s^2 2p^6 3s^2 3p^6 4s^2 3d^10 4p^6 5s^2 4d^10 5p^6 6s^2 4f^14 5d^10 6p^6 7s^2 5f^14 6d^1;No special;2S;-33557,950142251;0,0;6;2;6;2;1;[3, 3, 4, 4, 4, 4, 4, 4, 4, 4, 4];[68.265620, 39.089308, 32.844237, 23.518016, 17.207131, 13.500854, 9.062463, 6.166057, 3.792907, 2.132066, 1.176556];[0.000010500000, -0.028312000000, -0.036971100000, -0.006624800000, 0.097892500000, 0.124887400000, -0.152558500000, -0.270822700000, 0.163380000000, 0.616952100000, 0.417394300000]
Lawrencium;Lr;Actinide;sp3d;103;0;103;1s^2 2s^2 2p^6 3s^2 3p^6 4s^2 3d^10 4p^6 5s^2 4d^10 5p^6 6s^2 4f^14 5d^10 6p^6 7s^2 5f^14 6d^1;No special;2S;-33557,950142251;0,0;6;2;4;3;14;[4, 4, 4, 5, 4, 4, 4, 4];[37.777105, 23.538779, 15.418134, 10.187920, 10.098580, 5.745369, 3.590150, 2.284609];[0.048904210377, 0.913248394168, 2.288569773991, -0.206910285997, 0.960447905440, 0.010940232033, -0.001608912676, 0.000322905032]
Lawrencium;Lr;Actinide;sp3d;103;0;103;1s^2 2s^2 2p^6 3s^2 3p^6 4s^2 3d^10 4p^6 5s^2 4d^10 5p^6 6s^2 4f^14 5d^10 6p^6 7s^2 5f^14 6d^1;No special;2S;-33557,950142251;0,0;6;2;5;3;14;[4, 4, 4, 5, 4, 4, 4, 4];[37.777105, 23.538779, 15.418134, 10.187920, 10.098580, 5.745369, 3.590150, 2.284609];[-0.017569326425, -0.395118645878, -0.886298732675, 1.009489060477, -0.513944704504, 2.179544238558, 1.247868555925, 0.246940033384]