Element name;Symbol;clasificacion;Possible hybridization;Z;Q;N;Complete electronic configuration;Special configuration;Config;Energy;Ionization;Valence_n;Valence_l;n;l;mz;N_list;A_list;C_list
Thallium;Tl;Post-transitional metal;sp;81;0;81;1s^2 2s^2 2p^6 3s^2 3p^6 4s^2 3d^10 4p^6 5s^2 4d^10 5p^6 6s^2 4f^14 5d^10 6p^1;No special;1D;-18961,824641669;0,2246;6;1;3;0;2;[1, 1, 2, 2, 3, 3, 3, 4, 3, 3, 3, 3, 3];[103.436743, 79.972778, 66.565494, 37.786246, 34.935192, 23.854182, 19.646005, 13.028118, 9.620853, 4.644696, 3.495830, 1.538362, 1.003827];[-0.006695028426, 0.236754482426, 0.187717758522, -0.839391893547, -0.611644820142, 0.558705573912, 1.409502816997, 0.059944835954, -0.030440522666, 0.002866752312, -0.001700733230, 0.000289348095, -0.000127986327]
Thallium;Tl;Post-transitional metal;sp;81;0;81;1s^2 2s^2 2p^6 3s^2 3p^6 4s^2 3d^10 4p^6 5s^2 4d^10 5p^6 6s^2 4f^14 5d^10 6p^1;No special;1D;-18961,824641669;0,2246;6;1;4;0;2;[1, 1, 2, 2, 3, 3, 3, 4, 3, 3, 3, 3, 3];[103.436743, 79.972778, 66.565494, 37.786246, 34.935192, 23.854182, 19.646005, 13.028118, 9.620853, 4.644696, 3.495830, 1.538362, 1.003827];[0.002294702926, -0.116875275699, -0.097569139253, 0.430327509361, 0.348401410586, 0.213441596115, -1.970074728547, 0.146918404354, 1.872689012794, 0.030634128503, -0.008571265559, 0.001064478548, -0.000440244682]
Thallium;Tl;Post-transitional metal;sp;81;0;81;1s^2 2s^2 2p^6 3s^2 3p^6 4s^2 3d^10 4p^6 5s^2 4d^10 5p^6 6s^2 4f^14 5d^10 6p^1;No special;1D;-18961,824641669;0,2246;6;1;5;0;2;[1, 1, 2, 2, 3, 3, 3, 4, 3, 3, 3, 3, 3];[103.436743, 79.972778, 66.565494, 37.786246, 34.935192, 23.854182, 19.646005, 13.028118, 9.620853, 4.644696, 3.495830, 1.538362, 1.003827];[-0.000573887864, 0.050153669776, 0.043682087093, -0.190396561852, -0.143885764791, -0.275583978523, 1.299819665790, 0.700069937343, -2.493862521076, 1.403600313852, 0.590553239073, 0.002974515386, -0.000554795981]
Thallium;Tl;Post-transitional metal;sp;81;0;81;1s^2 2s^2 2p^6 3s^2 3p^6 4s^2 3d^10 4p^6 5s^2 4d^10 5p^6 6s^2 4f^14 5d^10 6p^1;No special;1D;-18961,824641669;0,2246;6;1;6;0;2;[1, 1, 2, 2, 3, 3, 3, 4, 3, 3, 3, 3, 3];[103.436743, 79.972778, 66.565494, 37.786246, 34.935192, 23.854182, 19.646005, 13.028118, 9.620853, 4.644696, 3.495830, 1.538362, 1.003827];[-0.000037759502, -0.014091506778, -0.012975833699, 0.055594997879, 0.038921137135, 0.097003453828, -0.410329115375, -0.269663373444, 0.858254532620, -0.516763676607, -0.337953059365, 0.901940296669, 0.715190284488]
Thallium;Tl;Post-transitional metal;sp;81;0;81;1s^2 2s^2 2p^6 3s^2 3p^6 4s^2 3d^10 4p^6 5s^2 4d^10 5p^6 6s^2 4f^14 5d^10 6p^1;No special;1D;-18961,824641669;0,2246;6;1;2;1;6;[2, 2, 3, 3, 4, 4, 3, 3, 3, 3, 3, 3];[75.656351, 42.807966, 38.003252, 22.085285, 22.083330, 12.487931, 12.486752, 8.716768, 4.389847, 3.082472, 1.207403, 0.752814];[-0.015909925777, -1.854936365170, -0.626852349361, -0.065913319489, 0.044379610211, 0.016685434230, -0.023231450619, -0.004685628929, 0.000490142898, -0.000217514689, 0.000036742346, -0.000017391377]
Thallium;Tl;Post-transitional metal;sp;81;0;81;1s^2 2s^2 2p^6 3s^2 3p^6 4s^2 3d^10 4p^6 5s^2 4d^10 5p^6 6s^2 4f^14 5d^10 6p^1;No special;1D;-18961,824641669;0,2246;6;1;3;1;6;[2, 2, 3, 3, 4, 4, 3, 3, 3, 3, 3, 3];[75.656351, 42.807966, 38.003252, 22.085285, 22.083330, 12.487931, 12.486752, 8.716768, 4.389847, 3.082472, 1.207403, 0.752814];[-0.004898244639, -0.948239365706, -0.610079223399, 2.128214423171, 0.532632726405, -0.212461146871, 0.498968898972, 0.031941836144, -0.002244467451, 0.000662831924, -0.000101653824, 0.000047275152]
Thallium;Tl;Post-transitional metal;sp;81;0;81;1s^2 2s^2 2p^6 3s^2 3p^6 4s^2 3d^10 4p^6 5s^2 4d^10 5p^6 6s^2 4f^14 5d^10 6p^1;No special;1D;-18961,824641669;0,2246;6;1;4;1;6;[2, 2, 3, 3, 4, 4, 3, 3, 3, 3, 3, 3];[75.656351, 42.807966, 38.003252, 22.085285, 22.083330, 12.487931, 12.486752, 8.716768, 4.389847, 3.082472, 1.207403, 0.752814];[0.001582125425, 0.474037257523, 0.322997555851, -1.316627436184, -0.793311344016, 1.172555797983, -0.296150903321, 2.092944465313, 0.033392179021, -0.006138911193, 0.000751258504, -0.000358115400]
Thallium;Tl;Post-transitional metal;sp;81;0;81;1s^2 2s^2 2p^6 3s^2 3p^6 4s^2 3d^10 4p^6 5s^2 4d^10 5p^6 6s^2 4f^14 5d^10 6p^1;No special;1D;-18961,824641669;0,2246;6;1;5;1;6;[2, 2, 3, 3, 4, 4, 3, 3, 3, 3, 3, 3];[75.656351, 42.807966, 38.003252, 22.085285, 22.083330, 12.487931, 12.486752, 8.716768, 4.389847, 3.082472, 1.207403, 0.752814];[-0.000411269328, -0.194709449756, -0.129574088210, 0.581471877642, 0.454441094632, -0.027049715230, 0.192795418471, -2.522054406719, 2.159860605903, 1.142496394706, 0.013154494766, -0.002567800097]
Thallium;Tl;Post-transitional metal;sp;81;0;81;1s^2 2s^2 2p^6 3s^2 3p^6 4s^2 3d^10 4p^6 5s^2 4d^10 5p^6 6s^2 4f^14 5d^10 6p^1;No special;1D;-18961,824641669;0,2246;6;1;6;1;1;[2, 2, 3, 3, 4, 4, 3, 3, 3, 3, 3, 3];[75.656351, 42.807966, 38.003252, 22.085285, 22.083330, 12.487931, 12.486752, 8.716768, 4.389847, 3.082472, 1.207403, 0.752814];[0.000062900000, 0.016910500000, 0.011749000000, -0.051327100000, -0.037198100000, 0.009853200000, -0.028373300000, 0.237818900000, -0.219438100000, -0.171344000000, 0.502799400000, 0.593359000000]
Thallium;Tl;Post-transitional metal;sp;81;0;81;1s^2 2s^2 2p^6 3s^2 3p^6 4s^2 3d^10 4p^6 5s^2 4d^10 5p^6 6s^2 4f^14 5d^10 6p^1;No special;1D;-18961,824641669;0,2246;6;1;3;2;10;[3, 3, 4, 4, 4, 4, 4, 4, 4];[47.191938, 28.279271, 23.220471, 15.344936, 11.487604, 8.518873, 5.232079, 3.290478, 2.031593];[0.022462290676, 1.542005327812, 1.536510237922, 0.349522755045, -0.080919206818, 0.026864813634, -0.004959400054, 0.001643119472, -0.000413309690]
Thallium;Tl;Post-transitional metal;sp;81;0;81;1s^2 2s^2 2p^6 3s^2 3p^6 4s^2 3d^10 4p^6 5s^2 4d^10 5p^6 6s^2 4f^14 5d^10 6p^1;No special;1D;-18961,824641669;0,2246;6;1;4;2;10;[3, 3, 4, 4, 4, 4, 4, 4, 4];[47.191938, 28.279271, 23.220471, 15.344936, 11.487604, 8.518873, 5.232079, 3.290478, 2.031593];[-0.009383426501, -0.812539022858, -0.914486743661, 0.503592401154, 1.841871469215, 1.260062659959, 0.067349873379, -0.006419423650, 0.001308866724]
Thallium;Tl;Post-transitional metal;sp;81;0;81;1s^2 2s^2 2p^6 3s^2 3p^6 4s^2 3d^10 4p^6 5s^2 4d^10 5p^6 6s^2 4f^14 5d^10 6p^1;No special;1D;-18961,824641669;0,2246;6;1;5;2;10;[3, 3, 4, 4, 4, 4, 4, 4, 4];[47.191938, 28.279271, 23.220471, 15.344936, 11.487604, 8.518873, 5.232079, 3.290478, 2.031593];[0.003239121007, 0.271673803607, 0.321934096055, -0.256579936107, -0.645702629380, -0.782398405796, 1.384347129014, 1.888301610960, 0.592293340838]
Thallium;Tl;Post-transitional metal;sp;81;0;81;1s^2 2s^2 2p^6 3s^2 3p^6 4s^2 3d^10 4p^6 5s^2 4d^10 5p^6 6s^2 4f^14 5d^10 6p^1;No special;1D;-18961,824641669;0,2246;6;1;4;3;14;[4, 4, 4, 5, 4, 4];[26.929334, 16.499440, 11.444569, 7.430050, 6.673895, 3.999648];[0.074317173182, 0.824681118829, 1.289753417044, -2.045271495742, 3.884552779038, 0.084076912310]
Lead;Pb;Post-transitional metal;sp;82;0;82;1s^2 2s^2 2p^6 3s^2 3p^6 4s^2 3d^10 4p^6 5s^2 4d^10 5p^6 6s^2 4f^14 5d^10 6p^2;No special;1S;-19524,007861032;0,2728;6;1;1;0;2;[1, 1, 2, 2, 3, 3, 3, 4, 3, 3, 3, 3, 3];[104.713731, 80.980311, 67.443613, 38.232020, 35.410237, 23.936443, 19.871630, 13.328775, 9.876587, 4.707823, 3.603001, 1.658677, 1.106132];[0.050605511009, 1.356797623112, 0.009453734822, 0.002069560127, -0.001746836592, 0.001561150352, -0.001022759248, 0.000487055151, -0.000422567012, 0.000078347431, -0.000049214632, 0.000009899495, -0.000004384062]
Lead;Pb;Post-transitional metal;sp;82;0;82;1s^2 2s^2 2p^6 3s^2 3p^6 4s^2 3d^10 4p^6 5s^2 4d^10 5p^6 6s^2 4f^14 5d^10 6p^2;No special;1S;-19524,007861032;0,2728;6;1;2;0;2;[1, 1, 2, 2, 3, 3, 3, 4, 3, 3, 3, 3, 3];[104.713731, 80.980311, 67.443613, 38.232020, 35.410237, 23.936443, 19.871630, 13.328775, 9.876587, 4.707823, 3.603001, 1.658677, 1.106132];[-0.018943249247, 0.505290020555, 0.354667083774, -1.626153122263, -0.148649684597, -0.018389867480, 0.007774497638, -0.001234749861, 0.001155836745, -0.000214819040, 0.000120915260, -0.000022768838, 0.000010040916]
Lead;Pb;Post-transitional metal;sp;82;0;82;1s^2 2s^2 2p^6 3s^2 3p^6 4s^2 3d^10 4p^6 5s^2 4d^10 5p^6 6s^2 4f^14 5d^10 6p^2;No special;1S;-19524,007861032;0,2728;6;1;3;0;2;[1, 1, 2, 2, 3, 3, 3, 4, 3, 3, 3, 3, 3];[104.713731, 80.980311, 67.443613, 38.232020, 35.410237, 23.936443, 19.871630, 13.328775, 9.876587, 4.707823, 3.603001, 1.658677, 1.106132];[-0.006600700381, 0.236990938934, 0.187872049222, -0.841746134864, -0.610859083087, 0.608597472758, 1.360032919478, 0.059991929265, -0.030206046057, 0.002844266317, -0.001805667876, 0.000323572063, -0.000139017193]
Lead;Pb;Post-transitional metal;sp;82;0;82;1s^2 2s^2 2p^6 3s^2 3p^6 4s^2 3d^10 4p^6 5s^2 4d^10 5p^6 6s^2 4f^14 5d^10 6p^2;No special;1S;-19524,007861032;0,2728;6;1;4;0;2;[1, 1, 2, 2, 3, 3, 3, 4, 3, 3, 3, 3, 3];[104.713731, 80.980311, 67.443613, 38.232020, 35.410237, 23.936443, 19.871630, 13.328775, 9.876587, 4.707823, 3.603001, 1.658677, 1.106132];[0.002357918273, -0.117555371001, -0.097688357456, 0.432277851284, 0.352687750472, 0.222440661276, -2.022373901719, 0.062806497097, 1.985401550872, 0.034662091571, -0.011306920274, 0.001389606246, -0.000568938116]
Lead;Pb;Post-transitional metal;sp;82;0;82;1s^2 2s^2 2p^6 3s^2 3p^6 4s^2 3d^10 4p^6 5s^2 4d^10 5p^6 6s^2 4f^14 5d^10 6p^2;No special;1S;-19524,007861032;0,2728;6;1;5;0;2;[1, 1, 2, 2, 3, 3, 3, 4, 3, 3, 3, 3, 3];[104.713731, 80.980311, 67.443613, 38.232020, 35.410237, 23.936443, 19.871630, 13.328775, 9.876587, 4.707823, 3.603001, 1.658677, 1.106132];[-0.000771594920, 0.051431411730, 0.044009901797, -0.193246626444, -0.150579237582, -0.291654960024, 1.370368699299, 0.796474754570, -2.649913775195, 1.489926879547, 0.514924916134, 0.002740038777, -0.000332057344]
Lead;Pb;Post-transitional metal;sp;82;0;82;1s^2 2s^2 2p^6 3s^2 3p^6 4s^2 3d^10 4p^6 5s^2 4d^10 5p^6 6s^2 4f^14 5d^10 6p^2;No special;1S;-19524,007861032;0,2728;6;1;6;0;2;[1, 1, 2, 2, 3, 3, 3, 4, 3, 3, 3, 3, 3];[104.713731, 80.980311, 67.443613, 38.232020, 35.410237, 23.936443, 19.871630, 13.328775, 9.876587, 4.707823, 3.603001, 1.658677, 1.106132];[-0.000008485281, -0.015556066343, -0.014156277759, 0.060976080483, 0.043904825729, 0.112093961066, -0.469060556092, -0.323159678396, 0.980513719352, -0.573662013705, -0.390675648077, 0.982732761852, 0.672934290351]
Lead;Pb;Post-transitional metal;sp;82;0;82;1s^2 2s^2 2p^6 3s^2 3p^6 4s^2 3d^10 4p^6 5s^2 4d^10 5p^6 6s^2 4f^14 5d^10 6p^2;No special;1S;-19524,007861032;0,2728;6;1;2;1;6;[2, 2, 3, 3, 4, 4, 3, 3, 3, 3, 3, 3];[76.554960, 43.341456, 38.511710, 22.531112, 22.530723, 12.764238, 12.761651, 8.920439, 4.517615, 3.250700, 1.317867, 0.862335];[-0.015794309861, -1.857185486652, -0.623663848563, -0.066519323251, 0.044493266535, 0.016804479431, -0.023281665158, -0.004806388773, 0.000546481162, -0.000257441372, 0.000044825662, -0.000021800459]
Lead;Pb;Post-transitional metal;sp;82;0;82;1s^2 2s^2 2p^6 3s^2 3p^6 4s^2 3d^10 4p^6 5s^2 4d^10 5p^6 6s^2 4f^14 5d^10 6p^2;No special;1S;-19524,007861032;0,2728;6;1;3;1;6;[2, 2, 3, 3, 4, 4, 3, 3, 3, 3, 3, 3];[76.554960, 43.341456, 38.511710, 22.531112, 22.530723, 12.764238, 12.761651, 8.920439, 4.517615, 3.250700, 1.317867, 0.862335];[-0.004862727037, -0.950901716107, -0.609871506668, 2.076062337057, 0.573053716243, -0.221058610919, 0.520798751560, 0.033266520197, -0.002519300200, 0.000810046258, -0.000122474487, 0.000058297856]
Lead;Pb;Post-transitional metal;sp;82;0;82;1s^2 2s^2 2p^6 3s^2 3p^6 4s^2 3d^10 4p^6 5s^2 4d^10 5p^6 6s^2 4f^14 5d^10 6p^2;No special;1S;-19524,007861032;0,2728;6;1;4;1;6;[2, 2, 3, 3, 4, 4, 3, 3, 3, 3, 3, 3];[76.554960, 43.341456, 38.511710, 22.531112, 22.530723, 12.764238, 12.761651, 8.920439, 4.517615, 3.250700, 1.317867, 0.862335];[0.001567183537, 0.477364644390, 0.323827442975, -1.277757708201, -0.809180853212, 1.214213045294, -0.408146963238, 2.132495886292, 0.036381291354, -0.007636284273, 0.000900677378, -0.000439193511]
Lead;Pb;Post-transitional metal;sp;82;0;82;1s^2 2s^2 2p^6 3s^2 3p^6 4s^2 3d^10 4p^6 5s^2 4d^10 5p^6 6s^2 4f^14 5d^10 6p^2;No special;1S;-19524,007861032;0,2728;6;1;5;1;6;[2, 2, 3, 3, 4, 4, 3, 3, 3, 3, 3, 3];[76.554960, 43.341456, 38.511710, 22.531112, 22.530723, 12.764238, 12.761651, 8.920439, 4.517615, 3.250700, 1.317867, 0.862335];[-0.000403186012, -0.199938620459, -0.132171772082, 0.575345458846, 0.471783482011, -0.028192157246, 0.264554445231, -2.651188321622, 2.177322528381, 1.158671355274, 0.013632390214, -0.002654512034]
Lead;Pb;Post-transitional metal;sp;82;0;82;1s^2 2s^2 2p^6 3s^2 3p^6 4s^2 3d^10 4p^6 5s^2 4d^10 5p^6 6s^2 4f^14 5d^10 6p^2;No special;1S;-19524,007861032;0,2728;6;1;6;1;2;[2, 2, 3, 3, 4, 4, 3, 3, 3, 3, 3, 3];[76.554960, 43.341456, 38.511710, 22.531112, 22.530723, 12.764238, 12.761651, 8.920439, 4.517615, 3.250700, 1.317867, 0.862335];[0.000122753737, 0.028450017077, 0.020012818964, -0.083371142193, -0.060752776162, 0.027701898102, -0.064044075386, 0.402649370046, -0.346796985299, -0.326752346530, 0.854687178909, 0.718647753805]
Lead;Pb;Post-transitional metal;sp;82;0;82;1s^2 2s^2 2p^6 3s^2 3p^6 4s^2 3d^10 4p^6 5s^2 4d^10 5p^6 6s^2 4f^14 5d^10 6p^2;No special;1S;-19524,007861032;0,2728;6;1;3;2;10;[3, 3, 4, 4, 4, 4, 4, 4, 4];[48.110533, 28.750592, 23.625068, 15.597300, 11.717172, 8.758467, 5.493821, 3.502864, 2.194676];[0.021042428006, 1.533769808101, 1.541232150924, 0.359085482690, -0.089191725177, 0.030571003052, -0.005895118014, 0.001895785457, -0.000459162716]
Lead;Pb;Post-transitional metal;sp;82;0;82;1s^2 2s^2 2p^6 3s^2 3p^6 4s^2 3d^10 4p^6 5s^2 4d^10 5p^6 6s^2 4f^14 5d^10 6p^2;No special;1S;-19524,007861032;0,2728;6;1;4;2;10;[3, 3, 4, 4, 4, 4, 4, 4, 4];[48.110533, 28.750592, 23.625068, 15.597300, 11.717172, 8.758467, 5.493821, 3.502864, 2.194676];[-0.008742432819, -0.813260022165, -0.923717432151, 0.494476187115, 1.835144355948, 1.267132564124, 0.074115250205, -0.006834630707, 0.001272816758]
Lead;Pb;Post-transitional metal;sp;82;0;82;1s^2 2s^2 2p^6 3s^2 3p^6 4s^2 3d^10 4p^6 5s^2 4d^10 5p^6 6s^2 4f^14 5d^10 6p^2;No special;1S;-19524,007861032;0,2728;6;1;5;2;10;[3, 3, 4, 4, 4, 4, 4, 4, 4];[48.110533, 28.750592, 23.625068, 15.597300, 11.717172, 8.758467, 5.493821, 3.502864, 2.194676];[0.003177772821, 0.283870076087, 0.340280049900, -0.270172037946, -0.655541107636, -0.866523529706, 1.363007446908, 1.971819261332, 0.548090391249]
Lead;Pb;Post-transitional metal;sp;82;0;82;1s^2 2s^2 2p^6 3s^2 3p^6 4s^2 3d^10 4p^6 5s^2 4d^10 5p^6 6s^2 4f^14 5d^10 6p^2;No special;1S;-19524,007861032;0,2728;6;1;4;3;14;[4, 4, 4, 5, 4, 4];[27.357639, 16.730728, 11.435776, 7.517999, 6.778528, 4.158712];[0.074397618816, 0.861762440195, 1.386650370058, -1.782571601445, 3.497851365617, 0.070986723942]
Bismuth;Bi;Post-transitional metal;sp2;83;0;83;1s^2 2s^2 2p^6 3s^2 3p^6 4s^2 3d^10 4p^6 5s^2 4d^10 5p^6 6s^2 4f^14 5d^10 6p^3;Half orbital;2P;-20095,586252534;0,268;6;1;1;0;2;[1, 1, 2, 2, 3, 3, 3, 4, 3, 3, 3, 3, 3];[106.328367, 82.011128, 68.287892, 38.691586, 35.822829, 24.123508, 20.086799, 13.611590, 10.116856, 4.757245, 3.651788, 1.800290, 1.214185];[0.048248017001, 1.358956702957, 0.009720314078, 0.001960524262, -0.001680792819, 0.001564685885, -0.001046942300, 0.000506995562, -0.000438971890, 0.000082448651, -0.000055012908, 0.000012303658, -0.000005091169]
Bismuth;Bi;Post-transitional metal;sp2;83;0;83;1s^2 2s^2 2p^6 3s^2 3p^6 4s^2 3d^10 4p^6 5s^2 4d^10 5p^6 6s^2 4f^14 5d^10 6p^3;Half orbital;2P;-20095,586252534;0,268;6;1;2;0;2;[1, 1, 2, 2, 3, 3, 3, 4, 3, 3, 3, 3, 3];[106.328367, 82.011128, 68.287892, 38.691586, 35.822829, 24.123508, 20.086799, 13.611590, 10.116856, 4.757245, 3.651788, 1.800290, 1.214185];[-0.018645274449, 0.504903798831, 0.355829708743, -1.630079261955, -0.145537990496, -0.018058800085, 0.007911676353, -0.001298389472, 0.001203354320, -0.000227546962, 0.000136613030, -0.000028567114, 0.000011879394]
Bismuth;Bi;Post-transitional metal;sp2;83;0;83;1s^2 2s^2 2p^6 3s^2 3p^6 4s^2 3d^10 4p^6 5s^2 4d^10 5p^6 6s^2 4f^14 5d^10 6p^3;Half orbital;2P;-20095,586252534;0,268;6;1;3;0;2;[1, 1, 2, 2, 3, 3, 3, 4, 3, 3, 3, 3, 3];[106.328367, 82.011128, 68.287892, 38.691586, 35.822829, 24.123508, 20.086799, 13.611590, 10.116856, 4.757245, 3.651788, 1.800290, 1.214185];[-0.006430994754, 0.237053588595, 0.188856059018, -0.845234999723, -0.614705602555, 0.660192650418, 1.314347457453, 0.059098570558, -0.029451987386, 0.002683611656, -0.001815708793, 0.000371513903, -0.000149199531]
Bismuth;Bi;Post-transitional metal;sp2;83;0;83;1s^2 2s^2 2p^6 3s^2 3p^6 4s^2 3d^10 4p^6 5s^2 4d^10 5p^6 6s^2 4f^14 5d^10 6p^3;Half orbital;2P;-20095,586252534;0,268;6;1;4;0;2;[1, 1, 2, 2, 3, 3, 3, 4, 3, 3, 3, 3, 3];[106.328367, 82.011128, 68.287892, 38.691586, 35.822829, 24.123508, 20.086799, 13.611590, 10.116856, 4.757245, 3.651788, 1.800290, 1.214185];[0.002383232695, -0.118140148309, -0.098295337917, 0.434998091072, 0.358783576611, 0.212575390308, -2.053859103943, -0.002230214788, 2.076700915717, 0.037848314727, -0.013897618099, 0.001904238562, -0.000738502322]
Bismuth;Bi;Post-transitional metal;sp2;83;0;83;1s^2 2s^2 2p^6 3s^2 3p^6 4s^2 3d^10 4p^6 5s^2 4d^10 5p^6 6s^2 4f^14 5d^10 6p^3;Half orbital;2P;-20095,586252534;0,268;6;1;5;0;2;[1, 1, 2, 2, 3, 3, 3, 4, 3, 3, 3, 3, 3];[106.328367, 82.011128, 68.287892, 38.691586, 35.822829, 24.123508, 20.086799, 13.611590, 10.116856, 4.757245, 3.651788, 1.800290, 1.214185];[-0.000893075865, 0.052572964917, 0.044687875779, -0.196723894751, -0.157122520892, -0.295817980488, 1.427588204297, 0.882607714429, -2.796912931144, 1.632310183850, 0.385895606237, 0.002492127140, -0.000049497475]
Bismuth;Bi;Post-transitional metal;sp2;83;0;83;1s^2 2s^2 2p^6 3s^2 3p^6 4s^2 3d^10 4p^6 5s^2 4d^10 5p^6 6s^2 4f^14 5d^10 6p^3;Half orbital;2P;-20095,586252534;0,268;6;1;6;0;2;[1, 1, 2, 2, 3, 3, 3, 4, 3, 3, 3, 3, 3];[106.328367, 82.011128, 68.287892, 38.691586, 35.822829, 24.123508, 20.086799, 13.611590, 10.116856, 4.757245, 3.651788, 1.800290, 1.214185];[0.000041295036, -0.016847384747, -0.015187663710, 0.065633368587, 0.048665917108, 0.121565090715, -0.519609357138, -0.377700945749, 1.099419805726, -0.657608033711, -0.416841851673, 1.013448631899, 0.691593706935]
Bismuth;Bi;Post-transitional metal;sp2;83;0;83;1s^2 2s^2 2p^6 3s^2 3p^6 4s^2 3d^10 4p^6 5s^2 4d^10 5p^6 6s^2 4f^14 5d^10 6p^3;Half orbital;2P;-20095,586252534;0,268;6;1;2;1;6;[2, 2, 3, 3, 4, 4, 3, 3, 3, 3, 3, 3];[77.331767, 43.879146, 39.038245, 23.017341, 23.016667, 13.120480, 13.118232, 9.144629, 4.600151, 3.378836, 1.434936, 0.962057];[-0.015830072412, -1.858568223612, -0.620526542101, -0.068388773823, 0.045689352376, 0.017195173045, -0.024172544578, -0.004815206936, 0.000590082079, -0.000300062493, 0.000054378672, -0.000025964591]
Bismuth;Bi;Post-transitional metal;sp2;83;0;83;1s^2 2s^2 2p^6 3s^2 3p^6 4s^2 3d^10 4p^6 5s^2 4d^10 5p^6 6s^2 4f^14 5d^10 6p^3;Half orbital;2P;-20095,586252534;0,268;6;1;3;1;6;[2, 2, 3, 3, 4, 4, 3, 3, 3, 3, 3, 3];[77.331767, 43.879146, 39.038245, 23.017341, 23.016667, 13.120480, 13.118232, 9.144629, 4.600151, 3.378836, 1.434936, 0.962057];[-0.004881833057, -0.953136140651, -0.608500527259, 2.006247470306, 0.622464823334, -0.227300155733, 0.550190668881, 0.032391072563, -0.002600378311, 0.000913904623, -0.000137906273, 0.000063931682]
Bismuth;Bi;Post-transitional metal;sp2;83;0;83;1s^2 2s^2 2p^6 3s^2 3p^6 4s^2 3d^10 4p^6 5s^2 4d^10 5p^6 6s^2 4f^14 5d^10 6p^3;Half orbital;2P;-20095,586252534;0,268;6;1;4;1;6;[2, 2, 3, 3, 4, 4, 3, 3, 3, 3, 3, 3];[77.331767, 43.879146, 39.038245, 23.017341, 23.016667, 13.120480, 13.118232, 9.144629, 4.600151, 3.378836, 1.434936, 0.962057];[0.001575511803, 0.480471822128, 0.323934240728, -1.222610141081, -0.822878399854, 1.246733205966, -0.573954638570, 2.217494405112, 0.039570282050, -0.009819269532, 0.001165222271, -0.000540602386]