Element name;Symbol;clasificacion;Possible hybridization;Z;Q;N;Complete electronic configuration;Special configuration;Config;Energy;Ionization;Valence_n;Valence_l;n;l;mz;N_list;A_list;C_list
Radium;Ra;Alkaline earth metal;Likely without hybridisation;88;0;88;1s^2 2s^2 2p^6 3s^2 3p^6 4s^2 3d^10 4p^6 5s^2 4d^10 5p^6 6s^2 4f^14 5d^10 6p^6 7s^2;Full orbital;3F;-23094,303492621;0,1941;7;0;7;0;2;[1, 1, 2, 2, 3, 3, 3, 4, 3, 3, 3, 3, 3, 3, 3];[102.772371, 85.593215, 70.820905, 41.242337, 36.905364, 25.990833, 20.824259, 10.834095, 10.835315, 5.559242, 4.498561, 2.306842, 1.710801, 0.761325, 0.569949];[-0.000639790216, 0.007476947104, 0.005431004344, -0.024754677038, -0.027323313132, 0.003915250247, 0.125724009959, -0.120743008371, -0.185965123654, 0.212092294955, 0.315010555586, -0.493024404907, -0.344226086464, 0.999652837177, 0.611572695250]
Radium;Ra;Alkaline earth metal;Likely without hybridisation;88;0;88;1s^2 2s^2 2p^6 3s^2 3p^6 4s^2 3d^10 4p^6 5s^2 4d^10 5p^6 6s^2 4f^14 5d^10 6p^6 7s^2;Full orbital;3F;-23094,303492621;0,1941;7;0;2;1;6;[2, 2, 3, 3, 4, 4, 3, 3, 3, 3, 3, 3];[83.018450, 46.836527, 41.801671, 25.187270, 25.102935, 13.925446, 13.918592, 9.852338, 5.415789, 4.328539, 1.999556, 1.359217];[-0.013654925520, -1.844681331413, -0.632915816271, -0.073234354432, 0.045796395078, 0.018590402403, -0.022783683894, -0.006887475259, 0.001360691552, -0.000752728198, 0.000089651325, -0.000036987295]
Radium;Ra;Alkaline earth metal;Likely without hybridisation;88;0;88;1s^2 2s^2 2p^6 3s^2 3p^6 4s^2 3d^10 4p^6 5s^2 4d^10 5p^6 6s^2 4f^14 5d^10 6p^6 7s^2;Full orbital;3F;-23094,303492621;0,1941;7;0;3;1;6;[2, 2, 3, 3, 4, 4, 3, 3, 3, 3, 3, 3];[83.018450, 46.836527, 41.801671, 25.187270, 25.102935, 13.925446, 13.918592, 9.852338, 5.415789, 4.328539, 1.999556, 1.359217];[-0.004291750978, -0.951690696754, -0.614743296818, 1.801479925769, 0.800270834273, -0.302906351082, 0.627384133584, 0.062041656001, -0.008760355116, 0.004081829707, -0.000404655706, 0.000160686527]
Radium;Ra;Alkaline earth metal;Likely without hybridisation;88;0;88;1s^2 2s^2 2p^6 3s^2 3p^6 4s^2 3d^10 4p^6 5s^2 4d^10 5p^6 6s^2 4f^14 5d^10 6p^6 7s^2;Full orbital;3F;-23094,303492621;0,1941;7;0;4;1;6;[2, 2, 3, 3, 4, 4, 3, 3, 3, 3, 3, 3];[83.018450, 46.836527, 41.801671, 25.187270, 25.102935, 13.925446, 13.918592, 9.852338, 5.415789, 4.328539, 1.999556, 1.359217];[0.001362161246, 0.489038912504, 0.331346151741, -1.090946148223, -0.926575343574, 1.677883817276, -0.699348182636, 1.872917089576, 0.041863249398, -0.012359390395, 0.000657932945, -0.000260870658]
Radium;Ra;Alkaline earth metal;Likely without hybridisation;88;0;88;1s^2 2s^2 2p^6 3s^2 3p^6 4s^2 3d^10 4p^6 5s^2 4d^10 5p^6 6s^2 4f^14 5d^10 6p^6 7s^2;Full orbital;3F;-23094,303492621;0,1941;7;0;5;1;6;[2, 2, 3, 3, 4, 4, 3, 3, 3, 3, 3, 3];[83.018450, 46.836527, 41.801671, 25.187270, 25.102935, 13.925446, 13.918592, 9.852338, 5.415789, 4.328539, 1.999556, 1.359217];[-0.000401226420, -0.225511293373, -0.149527631654, 0.533142955119, 0.561027701401, -0.273880877426, 0.642920512176, -3.244337406766, 2.228248889827, 1.440749695073, 0.023359558932, -0.005867752679]
Radium;Ra;Alkaline earth metal;Likely without hybridisation;88;0;88;1s^2 2s^2 2p^6 3s^2 3p^6 4s^2 3d^10 4p^6 5s^2 4d^10 5p^6 6s^2 4f^14 5d^10 6p^6 7s^2;Full orbital;3F;-23094,303492621;0,1941;7;0;6;1;6;[2, 2, 3, 3, 4, 4, 3, 3, 3, 3, 3, 3];[83.018450, 46.836527, 41.801671, 25.187270, 25.102935, 13.925446, 13.918592, 9.852338, 5.415789, 4.328539, 1.999556, 1.359217];[0.000252542392, 0.084223010367, 0.058081565934, -0.201663306187, -0.201264529257, 0.157481124849, -0.313092554178, 1.334870990839, -0.578360535770, -1.715376687075, 2.524464214728, 0.591956918486]
Radium;Ra;Alkaline earth metal;Likely without hybridisation;88;0;88;1s^2 2s^2 2p^6 3s^2 3p^6 4s^2 3d^10 4p^6 5s^2 4d^10 5p^6 6s^2 4f^14 5d^10 6p^6 7s^2;Full orbital;3F;-23094,303492621;0,1941;7;0;3;2;10;[3, 3, 4, 4, 4, 4, 4, 4, 4];[54.653258, 31.812073, 26.239889, 17.292475, 13.510169, 10.453460, 7.146561, 4.838823, 3.220235];[0.012304106148, 1.457486500333, 1.576846038161, 0.457393105678, -0.163390459512, 0.059917572194, -0.013016251077, 0.003568946567, -0.000705504146]
Radium;Ra;Alkaline earth metal;Likely without hybridisation;88;0;88;1s^2 2s^2 2p^6 3s^2 3p^6 4s^2 3d^10 4p^6 5s^2 4d^10 5p^6 6s^2 4f^14 5d^10 6p^6 7s^2;Full orbital;3F;-23094,303492621;0,1941;7;0;4;2;10;[3, 3, 4, 4, 4, 4, 4, 4, 4];[54.653258, 31.812073, 26.239889, 17.292475, 13.510169, 10.453460, 7.146561, 4.838823, 3.220235];[-0.004789269516, -0.798962099952, -0.977891359431, 0.306723224281, 1.685294453149, 1.509431021862, 0.144212826642, -0.010913020205, 0.001096045437]
Radium;Ra;Alkaline earth metal;Likely without hybridisation;88;0;88;1s^2 2s^2 2p^6 3s^2 3p^6 4s^2 3d^10 4p^6 5s^2 4d^10 5p^6 6s^2 4f^14 5d^10 6p^6 7s^2;Full orbital;3F;-23094,303492621;0,1941;7;0;5;2;10;[3, 3, 4, 4, 4, 4, 4, 4, 4];[54.653258, 31.812073, 26.239889, 17.292475, 13.510169, 10.453460, 7.146561, 4.838823, 3.220235];[0.002264190805, 0.332198533112, 0.434386903245, -0.280534505611, -0.570435361424, -1.435356565039, 1.026407339521, 2.448374820947, 0.542438452387]
Radium;Ra;Alkaline earth metal;Likely without hybridisation;88;0;88;1s^2 2s^2 2p^6 3s^2 3p^6 4s^2 3d^10 4p^6 5s^2 4d^10 5p^6 6s^2 4f^14 5d^10 6p^6 7s^2;Full orbital;3F;-23094,303492621;0,1941;7;0;4;3;14;[4, 4, 4, 5, 4, 4];[30.150869, 18.531819, 12.237536, 8.036556, 7.428155, 4.881720];[0.069120011072, 0.931262603657, 1.824125325885, -1.008788622214, 2.239023121041, 0.016936237995]
Actinium;Ac;Actinide;Likely without hybridisation;89;0;89;1s^2 2s^2 2p^6 3s^2 3p^6 4s^2 3d^10 4p^6 5s^2 4d^10 5p^6 6s^2 4f^14 5d^10 6p^6 7s^2 5f^1;No special;4F;-23722,191878737;0,1901;6;2;1;0;2;[1, 1, 2, 2, 3, 3, 3, 4, 3, 3, 3, 3, 3, 3, 3];[103.566421, 86.497397, 71.640446, 41.677547, 37.312088, 26.240073, 21.005341, 11.023570, 11.019466, 5.668415, 4.601852, 2.470213, 1.849037, 0.836903, 0.612646];[0.162481400344, 1.253815864292, -0.002557463806, 0.004587567375, -0.003768030616, 0.003520118978, -0.002438528446, -0.000913016276, 0.001152301211, 0.000505298506, -0.000359775930, 0.000097722157, -0.000054871486, 0.000013293607, -0.000006929646]
Actinium;Ac;Actinide;Likely without hybridisation;89;0;89;1s^2 2s^2 2p^6 3s^2 3p^6 4s^2 3d^10 4p^6 5s^2 4d^10 5p^6 6s^2 4f^14 5d^10 6p^6 7s^2 5f^1;No special;4F;-23722,191878737;0,1901;6;2;2;0;2;[1, 1, 2, 2, 3, 3, 3, 4, 3, 3, 3, 3, 3, 3, 3];[103.566421, 86.497397, 71.640446, 41.677547, 37.312088, 26.240073, 21.005341, 11.023570, 11.019466, 5.668415, 4.601852, 2.470213, 1.849037, 0.836903, 0.612646];[0.045686593397, -0.551055809911, -0.357839447637, 1.665850945487, 0.140364797285, 0.000033941125, 0.000669064436, 0.000547442070, -0.000918531709, -0.000143684098, 0.000111015765, -0.000031819805, 0.000016970563, -0.000004101219, 0.000002121320]
Actinium;Ac;Actinide;Likely without hybridisation;89;0;89;1s^2 2s^2 2p^6 3s^2 3p^6 4s^2 3d^10 4p^6 5s^2 4d^10 5p^6 6s^2 4f^14 5d^10 6p^6 7s^2 5f^1;No special;4F;-23722,191878737;0,1901;6;2;3;0;2;[1, 1, 2, 2, 3, 3, 3, 4, 3, 3, 3, 3, 3, 3, 3];[103.566421, 86.497397, 71.640446, 41.677547, 37.312088, 26.240073, 21.005341, 11.023570, 11.019466, 5.668415, 4.601852, 2.470213, 1.849037, 0.836903, 0.612646];[-0.013556509788, 0.253660415615, 0.200700804710, -0.889734502255, -0.711147047913, 1.032699189753, 1.062168713387, -0.020359442708, 0.041030436664, 0.003425083827, -0.002328078366, 0.000539381053, -0.000276054487, 0.000061801133, -0.000031819805]
Actinium;Ac;Actinide;Likely without hybridisation;89;0;89;1s^2 2s^2 2p^6 3s^2 3p^6 4s^2 3d^10 4p^6 5s^2 4d^10 5p^6 6s^2 4f^14 5d^10 6p^6 7s^2 5f^1;No special;4F;-23722,191878737;0,1901;6;2;4;0;2;[1, 1, 2, 2, 3, 3, 3, 4, 3, 3, 3, 3, 3, 3, 3];[103.566421, 86.497397, 71.640446, 41.677547, 37.312088, 26.240073, 21.005341, 11.023570, 11.019466, 5.668415, 4.601852, 2.470213, 1.849037, 0.836903, 0.612646];[0.006265248924, -0.129390217198, -0.105538374098, 0.464612288753, 0.441011751403, -0.157744916281, -1.907607077020, -0.204100856957, 2.371970322764, 0.054330125268, -0.023304118188, 0.002941705631, -0.001530320496, 0.000292035101, -0.000146653946]
Actinium;Ac;Actinide;Likely without hybridisation;89;0;89;1s^2 2s^2 2p^6 3s^2 3p^6 4s^2 3d^10 4p^6 5s^2 4d^10 5p^6 6s^2 4f^14 5d^10 6p^6 7s^2 5f^1;No special;4F;-23722,191878737;0,1901;6;2;5;0;2;[1, 1, 2, 2, 3, 3, 3, 4, 3, 3, 3, 3, 3, 3, 3];[103.566421, 86.497397, 71.640446, 41.677547, 37.312088, 26.240073, 21.005341, 11.023570, 11.019466, 5.668415, 4.601852, 2.470213, 1.849037, 0.836903, 0.612646];[-0.004928534265, 0.064773385320, 0.048454067917, -0.219318926259, -0.235021505127, 0.051395349284, 1.070181223167, -0.712238679362, -1.544579162665, 1.934640476371, 0.376094540564, 0.006968678750, -0.000380847712, 0.000019516147, 0.000001414214]
Actinium;Ac;Actinide;Likely without hybridisation;89;0;89;1s^2 2s^2 2p^6 3s^2 3p^6 4s^2 3d^10 4p^6 5s^2 4d^10 5p^6 6s^2 4f^14 5d^10 6p^6 7s^2 5f^1;No special;4F;-23722,191878737;0,1901;6;2;6;0;2;[1, 1, 2, 2, 3, 3, 3, 4, 3, 3, 3, 3, 3, 3, 3];[103.566421, 86.497397, 71.640446, 41.677547, 37.312088, 26.240073, 21.005341, 11.023570, 11.019466, 5.668415, 4.601852, 2.470213, 1.849037, 0.836903, 0.612646];[0.001627901232, -0.026640955088, -0.020915087217, 0.093215341379, 0.097204696418, -0.007471007407, -0.478249832978, 0.406026370612, 0.704888587214, -0.724572318682, -1.123940147578, 1.594376309202, 0.438021113983, -0.002689692774, 0.001359907762]
Actinium;Ac;Actinide;Likely without hybridisation;89;0;89;1s^2 2s^2 2p^6 3s^2 3p^6 4s^2 3d^10 4p^6 5s^2 4d^10 5p^6 6s^2 4f^14 5d^10 6p^6 7s^2 5f^1;No special;4F;-23722,191878737;0,1901;6;2;7;0;2;[1, 1, 2, 2, 3, 3, 3, 4, 3, 3, 3, 3, 3, 3, 3];[103.566421, 86.497397, 71.640446, 41.677547, 37.312088, 26.240073, 21.005341, 11.023570, 11.019466, 5.668415, 4.601852, 2.470213, 1.849037, 0.836903, 0.612646];[-0.000666943116, 0.008060451620, 0.005899391875, -0.026897634850, -0.029684059831, 0.005364960570, 0.136737339497, -0.133873698455, -0.203628085363, 0.218331380928, 0.383765517769, -0.532550684026, -0.375629547145, 0.910091823642, 0.714727836653]
Actinium;Ac;Actinide;Likely without hybridisation;89;0;89;1s^2 2s^2 2p^6 3s^2 3p^6 4s^2 3d^10 4p^6 5s^2 4d^10 5p^6 6s^2 4f^14 5d^10 6p^6 7s^2 5f^1;No special;4F;-23722,191878737;0,1901;6;2;2;1;6;[2, 2, 3, 3, 4, 4, 3, 3, 3, 3, 3, 3];[83.950462, 47.379407, 42.317464, 25.516598, 25.513192, 14.143135, 14.143061, 10.014047, 5.578447, 4.528351, 2.122176, 1.425686];[-0.013526082360, -1.846079500158, -0.630842813101, -0.074601659606, 0.046880784187, 0.018935045610, -0.022869171086, -0.007270575455, 0.001581145629, -0.000895043552, 0.000094795253, -0.000036742346]
Actinium;Ac;Actinide;Likely without hybridisation;89;0;89;1s^2 2s^2 2p^6 3s^2 3p^6 4s^2 3d^10 4p^6 5s^2 4d^10 5p^6 6s^2 4f^14 5d^10 6p^6 7s^2 5f^1;No special;4F;-23722,191878737;0,1901;6;2;3;1;6;[2, 2, 3, 3, 4, 4, 3, 3, 3, 3, 3, 3];[83.950462, 47.379407, 42.317464, 25.516598, 25.513192, 14.143135, 14.143061, 10.014047, 5.578447, 4.528351, 2.122176, 1.425686];[-0.004244720775, -0.953724753036, -0.614366320346, 1.792374192599, 0.799784365610, -0.313654712074, 0.643003059980, 0.066760108093, -0.010409106662, 0.005039090299, -0.000439928358, 0.000165095609]
Actinium;Ac;Actinide;Likely without hybridisation;89;0;89;1s^2 2s^2 2p^6 3s^2 3p^6 4s^2 3d^10 4p^6 5s^2 4d^10 5p^6 6s^2 4f^14 5d^10 6p^6 7s^2 5f^1;No special;4F;-23722,191878737;0,1901;6;2;4;1;6;[2, 2, 3, 3, 4, 4, 3, 3, 3, 3, 3, 3];[83.950462, 47.379407, 42.317464, 25.516598, 25.513192, 14.143135, 14.143061, 10.014047, 5.578447, 4.528351, 2.122176, 1.425686];[0.001352118338, 0.491846517647, 0.332221844324, -1.082469933917, -0.923282984411, 1.743935532935, -0.750995673862, 1.844116234129, 0.043203610185, -0.013467049657, 0.000580039171, -0.000226577801]
Actinium;Ac;Actinide;Likely without hybridisation;89;0;89;1s^2 2s^2 2p^6 3s^2 3p^6 4s^2 3d^10 4p^6 5s^2 4d^10 5p^6 6s^2 4f^14 5d^10 6p^6 7s^2 5f^1;No special;4F;-23722,191878737;0,1901;6;2;5;1;6;[2, 2, 3, 3, 4, 4, 3, 3, 3, 3, 3, 3];[83.950462, 47.379407, 42.317464, 25.516598, 25.513192, 14.143135, 14.143061, 10.014047, 5.578447, 4.528351, 2.122176, 1.425686];[-0.000405390552, -0.229788837311, -0.151926172010, 0.535150556912, 0.565807145788, -0.306476727331, 0.705361924903, -3.352258250598, 2.178611694833, 1.551321621654, 0.024040272132, -0.005603942634]
Actinium;Ac;Actinide;Likely without hybridisation;89;0;89;1s^2 2s^2 2p^6 3s^2 3p^6 4s^2 3d^10 4p^6 5s^2 4d^10 5p^6 6s^2 4f^14 5d^10 6p^6 7s^2 5f^1;No special;4F;-23722,191878737;0,1901;6;2;6;1;6;[2, 2, 3, 3, 4, 4, 3, 3, 3, 3, 3, 3];[83.950462, 47.379407, 42.317464, 25.516598, 25.513192, 14.143135, 14.143061, 10.014047, 5.578447, 4.528351, 2.122176, 1.425686];[0.000276792341, 0.089092106078, 0.061536081318, -0.210025129322, -0.208834187409, 0.192024564049, -0.355663461162, 1.415761960309, -0.421854062890, -2.052432844355, 2.660407711116, 0.544564435891]
Actinium;Ac;Actinide;Likely without hybridisation;89;0;89;1s^2 2s^2 2p^6 3s^2 3p^6 4s^2 3d^10 4p^6 5s^2 4d^10 5p^6 6s^2 4f^14 5d^10 6p^6 7s^2 5f^1;No special;4F;-23722,191878737;0,1901;6;2;3;2;10;[3, 3, 4, 4, 4, 4, 4, 4, 4, 4, 4];[55.806211, 32.318943, 26.673684, 17.487764, 13.909369, 10.825716, 7.265443, 5.033503, 3.419505, 1.865952, 1.076193];[0.011257708470, 1.446172819548, 1.582314564918, 0.490557808867, -0.199253218001, 0.070631052679, -0.016058045958, 0.005979867055, -0.001767396984, 0.000374097447, -0.000106884985]
Actinium;Ac;Actinide;Likely without hybridisation;89;0;89;1s^2 2s^2 2p^6 3s^2 3p^6 4s^2 3d^10 4p^6 5s^2 4d^10 5p^6 6s^2 4f^14 5d^10 6p^6 7s^2 5f^1;No special;4F;-23722,191878737;0,1901;6;2;4;2;10;[3, 3, 4, 4, 4, 4, 4, 4, 4, 4, 4];[55.806211, 32.318943, 26.673684, 17.487764, 13.909369, 10.825716, 7.265443, 5.033503, 3.419505, 1.865952, 1.076193];[-0.004303543668, -0.796866458547, -0.985435289017, 0.275326234305, 1.576373277650, 1.630405218663, 0.166869913622, -0.021810229022, 0.004441418974, -0.000956272764, 0.000246657657]
Actinium;Ac;Actinide;Likely without hybridisation;89;0;89;1s^2 2s^2 2p^6 3s^2 3p^6 4s^2 3d^10 4p^6 5s^2 4d^10 5p^6 6s^2 4f^14 5d^10 6p^6 7s^2 5f^1;No special;4F;-23722,191878737;0,1901;6;2;5;2;10;[3, 3, 4, 4, 4, 4, 4, 4, 4, 4, 4];[55.806211, 32.318943, 26.673684, 17.487764, 13.909369, 10.825716, 7.265443, 5.033503, 3.419505, 1.865952, 1.076193];[0.002087419483, 0.338709979042, 0.447257689549, -0.283127257065, -0.507641381470, -1.516982540915, 0.973839533065, 2.470374154173, 0.546440947222, 0.002486815152, 0.000659967348]
Actinium;Ac;Actinide;Likely without hybridisation;89;0;89;1s^2 2s^2 2p^6 3s^2 3p^6 4s^2 3d^10 4p^6 5s^2 4d^10 5p^6 6s^2 4f^14 5d^10 6p^6 7s^2 5f^1;No special;4F;-23722,191878737;0,1901;6;2;6;2;1;[3, 3, 4, 4, 4, 4, 4, 4, 4, 4, 4];[55.806211, 32.318943, 26.673684, 17.487764, 13.909369, 10.825716, 7.265443, 5.033503, 3.419505, 1.865952, 1.076193];[-0.000087200000, -0.030449600000, -0.037856200000, 0.011958100000, 0.080465400000, 0.101810000000, -0.048148900000, -0.360324300000, 0.033091400000, 0.659109800000, 0.446235000000]
Actinium;Ac;Actinide;Likely without hybridisation;89;0;89;1s^2 2s^2 2p^6 3s^2 3p^6 4s^2 3d^10 4p^6 5s^2 4d^10 5p^6 6s^2 4f^14 5d^10 6p^6 7s^2 5f^1;No special;4F;-23722,191878737;0,1901;6;2;4;3;14;[4, 4, 4, 5, 4, 4];[30.646406, 18.859879, 12.433128, 8.224069, 7.677769, 5.545284];[0.067702671254, 0.933069075843, 1.869731639441, -0.815841453253, 1.982805648167, 0.033961527437]
Thorium;Th;Actinide;Likely without hybridisation;90;0;90;1s^2 2s^2 2p^6 3s^2 3p^6 4s^2 3d^10 4p^6 5s^2 4d^10 5p^6 6s^2 4f^14 5d^10 6p^6 7s^2 5f^2;No special;7S;-24359,622254112;0,2235;6;2;1;0;2;[1, 1, 2, 2, 3, 3, 3, 4, 3, 3, 3, 3, 3, 3, 3];[104.360470, 87.407443, 72.395723, 42.152982, 37.702725, 26.525386, 21.190267, 11.203617, 11.206623, 5.799329, 4.767688, 2.619963, 1.957576, 0.895730, 0.642855];[0.169845634627, 1.246759787144, -0.002973525436, 0.004642297440, -0.003819790832, 0.003595213718, -0.002517441562, -0.000985141168, 0.001229941535, 0.000598919444, -0.000438547626, 0.000112854242, -0.000060528340, 0.000013435029, -0.000006646804]
Thorium;Th;Actinide;Likely without hybridisation;90;0;90;1s^2 2s^2 2p^6 3s^2 3p^6 4s^2 3d^10 4p^6 5s^2 4d^10 5p^6 6s^2 4f^14 5d^10 6p^6 7s^2 5f^2;No special;7S;-24359,622254112;0,2235;6;2;2;0;2;[1, 1, 2, 2, 3, 3, 3, 4, 3, 3, 3, 3, 3, 3, 3];[104.360470, 87.407443, 72.395723, 42.152982, 37.702725, 26.525386, 21.190267, 11.203617, 11.206623, 5.799329, 4.767688, 2.619963, 1.957576, 0.895730, 0.642855];[0.047186084037, -0.553564200506, -0.358147321929, 1.668942982020, 0.138628708716, -0.000591424112, 0.000931966738, 0.000621122597, -0.001014981074, -0.000193888679, 0.000150189480, -0.000040163665, 0.000020506097, -0.000004525483, 0.000002262742]
Thorium;Th;Actinide;Likely without hybridisation;90;0;90;1s^2 2s^2 2p^6 3s^2 3p^6 4s^2 3d^10 4p^6 5s^2 4d^10 5p^6 6s^2 4f^14 5d^10 6p^6 7s^2 5f^2;No special;7S;-24359,622254112;0,2235;6;2;3;0;2;[1, 1, 2, 2, 3, 3, 3, 4, 3, 3, 3, 3, 3, 3, 3];[104.360470, 87.407443, 72.395723, 42.152982, 37.702725, 26.525386, 21.190267, 11.203617, 11.206623, 5.799329, 4.767688, 2.619963, 1.957576, 0.895730, 0.642855];[-0.013919255566, 0.254716974567, 0.201438741347, -0.892933594754, -0.717827509939, 1.068953402952, 1.035890504078, -0.018102923548, 0.037148137592, 0.002949483806, -0.002067014543, 0.000447740014, -0.000212556298, 0.000043133514, -0.000020930361]
Thorium;Th;Actinide;Likely without hybridisation;90;0;90;1s^2 2s^2 2p^6 3s^2 3p^6 4s^2 3d^10 4p^6 5s^2 4d^10 5p^6 6s^2 4f^14 5d^10 6p^6 7s^2 5f^2;No special;7S;-24359,622254112;0,2235;6;2;4;0;2;[1, 1, 2, 2, 3, 3, 3, 4, 3, 3, 3, 3, 3, 3, 3];[104.360470, 87.407443, 72.395723, 42.152982, 37.702725, 26.525386, 21.190267, 11.203617, 11.206623, 5.799329, 4.767688, 2.619963, 1.957576, 0.895730, 0.642855];[0.006651612069, -0.130570944101, -0.105970557763, 0.467103425943, 0.449498871255, -0.188564448182, -1.907738740302, -0.210797016753, 2.396445409782, 0.058035223380, -0.026094644389, 0.002992900162, -0.001470923526, 0.000248901587, -0.000117379726]
Thorium;Th;Actinide;Likely without hybridisation;90;0;90;1s^2 2s^2 2p^6 3s^2 3p^6 4s^2 3d^10 4p^6 5s^2 4d^10 5p^6 6s^2 4f^14 5d^10 6p^6 7s^2 5f^2;No special;7S;-24359,622254112;0,2235;6;2;5;0;2;[1, 1, 2, 2, 3, 3, 3, 4, 3, 3, 3, 3, 3, 3, 3];[104.360470, 87.407443, 72.395723, 42.152982, 37.702725, 26.525386, 21.190267, 11.203617, 11.206623, 5.799329, 4.767688, 2.619963, 1.957576, 0.895730, 0.642855];[-0.005183234127, 0.066025530008, 0.049186913385, -0.222836216810, -0.241990890984, 0.067506353029, 1.083344440163, -0.748688054033, -1.577313539729, 1.999004022601, 0.350757348959, 0.008893989094, -0.000739916536, 0.000082872915, -0.000027011479]
Thorium;Th;Actinide;Likely without hybridisation;90;0;90;1s^2 2s^2 2p^6 3s^2 3p^6 4s^2 3d^10 4p^6 5s^2 4d^10 5p^6 6s^2 4f^14 5d^10 6p^6 7s^2 5f^2;No special;7S;-24359,622254112;0,2235;6;2;6;0;2;[1, 1, 2, 2, 3, 3, 3, 4, 3, 3, 3, 3, 3, 3, 3];[104.360470, 87.407443, 72.395723, 42.152982, 37.702725, 26.525386, 21.190267, 11.203617, 11.206623, 5.799329, 4.767688, 2.619963, 1.957576, 0.895730, 0.642855];[0.001744291008, -0.027784488175, -0.021766302360, 0.097040081959, 0.102461752493, -0.013638251331, -0.497735008862, 0.435750735530, 0.738884018512, -0.677342394025, -1.302981140209, 1.621922360970, 0.487039453111, -0.002063903273, 0.001107329219]
Thorium;Th;Actinide;Likely without hybridisation;90;0;90;1s^2 2s^2 2p^6 3s^2 3p^6 4s^2 3d^10 4p^6 5s^2 4d^10 5p^6 6s^2 4f^14 5d^10 6p^6 7s^2 5f^2;No special;7S;-24359,622254112;0,2235;6;2;7;0;2;[1, 1, 2, 2, 3, 3, 3, 4, 3, 3, 3, 3, 3, 3, 3];[104.360470, 87.407443, 72.395723, 42.152982, 37.702725, 26.525386, 21.190267, 11.203617, 11.206623, 5.799329, 4.767688, 2.619963, 1.957576, 0.895730, 0.642855];[-0.000697348708, 0.008491503914, 0.006253652373, -0.028441107532, -0.031557468538, 0.006931626355, 0.144841914581, -0.144752394862, -0.216991837842, 0.195208423498, 0.467353600323, -0.573449033143, -0.381980214568, 0.858540345181, 0.771477822748]