Element name;Symbol;clasificacion;Possible hybridization;Z;Q;N;Complete electronic configuration;Special configuration;Config;Energy;Ionization;Valence_n;Valence_l;n;l;mz;N_list;A_list;C_list
Zinc;Zn;Transition metal;sp3d;30;0;30;1s^2 2s^2 2p^6 3s^2 3p^6 4s^2 3d^10;Full orbital;1S;-1777,848115134;0,3452;3;2;3;0;2;[1, 3, 1, 3, 2, 1, 2, 2, 1, 1, 2, 1];[72.171558, 42.777264, 31.527672, 22.081772, 13.336452, 11.561129, 10.027114, 4.420748, 3.230588, 2.015129, 0.818486, 0.764862];[-0.001662125200, 0.007354193367, 0.069129163092, -0.006889765633, -0.417356766831, 0.217822829731, -1.261152945675, 0.946763654107, 1.169390850152, 0.027884897337, 0.001328936485, -0.002804526916]
Zinc;Zn;Transition metal;sp3d;30;0;30;1s^2 2s^2 2p^6 3s^2 3p^6 4s^2 3d^10;Full orbital;1S;-1777,848115134;0,3452;3;2;4;0;2;[1, 3, 1, 3, 2, 1, 2, 2, 1, 1, 2, 1];[72.171558, 42.777264, 31.527672, 22.081772, 13.336452, 11.561129, 10.027114, 4.420748, 3.230588, 2.015129, 0.818486, 0.764862];[0.000408142034, -0.001814153158, -0.014489042211, -0.000275205959, 0.072213987135, -0.034040403289, 0.296519430415, -0.185709716685, 0.007795427999, -0.898958144530, 0.593785282748, 1.257869141783]
Zinc;Zn;Transition metal;sp3d;30;0;30;1s^2 2s^2 2p^6 3s^2 3p^6 4s^2 3d^10;Full orbital;1S;-1777,848115134;0,3452;3;2;2;1;6;[2, 3, 2, 3, 2, 2, 3, 2, 2, 2];[62.133895, 41.854760, 20.683667, 16.687144, 11.270401, 9.043064, 4.115574, 3.555618, 1.819362, 0.764862];[0.000922232888, 0.006589617306, -0.560480975291, -0.534564149067, -1.259666756757, -0.196393229005, 0.017771537982, -0.029783345783, 0.000058297856, -0.000006123724]
Zinc;Zn;Transition metal;sp3d;30;0;30;1s^2 2s^2 2p^6 3s^2 3p^6 4s^2 3d^10;Full orbital;1S;-1777,848115134;0,3452;3;2;3;1;6;[2, 3, 2, 3, 2, 2, 3, 2, 2, 2];[62.133895, 41.854760, 20.683667, 16.687144, 11.270401, 9.043064, 4.115574, 3.555618, 1.819362, 0.764862];[0.000371587594, 0.002725792186, -0.076744963131, 0.053904940974, -1.267114675268, -0.155315286019, -1.439765490095, 4.252112845415, 0.037683440101, 0.000315004381]
Zinc;Zn;Transition metal;sp3d;30;0;30;1s^2 2s^2 2p^6 3s^2 3p^6 4s^2 3d^10;Full orbital;1S;-1777,848115134;0,3452;3;2;3;2;10;[3, 4, 3, 3, 3, 3, 3, 3];[26.840425, 21.076327, 9.261571, 6.082216, 3.860363, 2.445106, 1.590058, 0.764862];[0.005342984335, 0.021141091069, 0.409004565377, 1.018276491201, 1.175358206781, 0.824440571060, 0.253663683649, 0.001025210417]
Gallium;Ga;Post-transitional metal;sp;31;0;31;1s^2 2s^2 2p^6 3s^2 3p^6 4s^2 3d^10 4p^1;No special;2S;-1923,261007857;0,2206;4;1;1;0;2;[1, 3, 1, 3, 2, 2, 1, 1, 1, 1, 2, 1];[74.163075, 44.111552, 32.554208, 22.941369, 14.638429, 11.507175, 10.651417, 6.419062, 3.758419, 2.128908, 0.715996, 0.645754];[-0.002846104794, 0.015138307657, 1.201182371034, -0.073176359465, -0.165117777267, -0.154078143356, 0.543727355230, -0.000077074639, -0.000250881486, 0.000057841335, 0.000011313708, -0.000018526198]
Gallium;Ga;Post-transitional metal;sp;31;0;31;1s^2 2s^2 2p^6 3s^2 3p^6 4s^2 3d^10 4p^1;No special;2S;-1923,261007857;0,2206;4;1;2;0;2;[1, 3, 1, 3, 2, 2, 1, 1, 1, 1, 2, 1];[74.163075, 44.111552, 32.554208, 22.941369, 14.638429, 11.507175, 10.651417, 6.419062, 3.758419, 2.128908, 0.715996, 0.645754];[0.003023447175, -0.012771338418, -0.167493231788, 0.018422677234, 1.358559167525, 1.186345008023, -1.334192974952, 0.068065674493, 0.001984424471, 0.000595949595, 0.000099277792, -0.000169988470]
Gallium;Ga;Post-transitional metal;sp;31;0;31;1s^2 2s^2 2p^6 3s^2 3p^6 4s^2 3d^10 4p^1;No special;2S;-1923,261007857;0,2206;4;1;3;0;2;[1, 3, 1, 3, 2, 2, 1, 1, 1, 1, 2, 1];[74.163075, 44.111552, 32.554208, 22.941369, 14.638429, 11.507175, 10.651417, 6.419062, 3.758419, 2.128908, 0.715996, 0.645754];[0.001503591860, -0.006511322084, -0.071627795614, 0.018277013237, 0.106301200893, 1.228824306482, -0.738234187380, 2.035037618484, -3.212729902247, -0.022742109718, -0.000511945310, 0.000819819602]
Gallium;Ga;Post-transitional metal;sp;31;0;31;1s^2 2s^2 2p^6 3s^2 3p^6 4s^2 3d^10 4p^1;No special;2S;-1923,261007857;0,2206;4;1;4;0;2;[1, 3, 1, 3, 2, 2, 1, 1, 1, 1, 2, 1];[74.163075, 44.111552, 32.554208, 22.941369, 14.638429, 11.507175, 10.651417, 6.419062, 3.758419, 2.128908, 0.715996, 0.645754];[0.000332198766, -0.001433871131, -0.018525490560, 0.008292665487, -0.022319684127, 0.357630851136, -0.139232860750, 0.406460251333, -0.344279119473, -1.364341179675, -1.125120733060, 3.083719259970]
Gallium;Ga;Post-transitional metal;sp;31;0;31;1s^2 2s^2 2p^6 3s^2 3p^6 4s^2 3d^10 4p^1;No special;2S;-1923,261007857;0,2206;4;1;2;1;6;[2, 3, 2, 3, 2, 3, 3, 3, 2, 2, 2];[65.541676, 44.152054, 22.005072, 17.824611, 12.176581, 10.192581, 6.855667, 4.730498, 3.006855, 0.905335, 0.645754];[-0.000864914828, -0.005984593340, 0.439829643367, 0.379961174666, 1.612356047473, 0.118881085686, 0.006686372151, 0.001984331641, 0.000638092078, 0.000013962092, -0.000011267653]
Gallium;Ga;Post-transitional metal;sp;31;0;31;1s^2 2s^2 2p^6 3s^2 3p^6 4s^2 3d^10 4p^1;No special;2S;-1923,261007857;0,2206;4;1;3;1;6;[2, 3, 2, 3, 2, 3, 3, 3, 2, 2, 2];[65.541676, 44.152054, 22.005072, 17.824611, 12.176581, 10.192581, 6.855667, 4.730498, 3.006855, 0.905335, 0.645754];[0.000411024379, 0.002875211060, -0.042853333152, 0.092741600845, -1.174837497678, 0.139216994480, 1.042910429622, 1.126491918625, 0.529445695301, 0.003737921347, -0.001146361200]
Gallium;Ga;Post-transitional metal;sp;31;0;31;1s^2 2s^2 2p^6 3s^2 3p^6 4s^2 3d^10 4p^1;No special;2S;-1923,261007857;0,2206;4;1;4;1;1;[2, 3, 2, 3, 2, 3, 3, 3, 2, 2, 2];[65.541676, 44.152054, 22.005072, 17.824611, 12.176581, 10.192581, 6.855667, 4.730498, 3.006855, 0.905335, 0.645754];[-0.000021000000, -0.000151300000, 0.002615100000, -0.006086400000, 0.083071900000, -0.000680100000, -0.071525300000, -0.017908100000, -0.207424200000, 0.563406300000, 0.508183100000]
Gallium;Ga;Post-transitional metal;sp;31;0;31;1s^2 2s^2 2p^6 3s^2 3p^6 4s^2 3d^10 4p^1;No special;2S;-1923,261007857;0,2206;4;1;3;2;10;[3, 4, 3, 3, 3, 3, 3, 3];[28.295386, 22.128835, 9.633176, 6.261006, 3.907149, 2.459171, 1.565609, 0.645754];[0.005113086749, 0.020940286438, 0.448716132006, 1.109625205970, 1.281854863998, 0.708449807624, 0.067499132884, -0.000023400855]
Germanium;Ge;Metaloid;sp;32;0;32;1s^2 2s^2 2p^6 3s^2 3p^6 4s^2 3d^10 4p^2;No special;1S;-2075,359731251;0,2897;4;1;1;0;2;[1, 3, 1, 3, 2, 2, 1, 1, 1, 1, 2, 1];[76.555432, 45.858462, 33.610460, 23.935761, 15.346717, 12.026209, 11.159105, 6.438987, 4.028666, 2.450056, 0.836054, 0.758093];[-0.002556615278, 0.013496829975, 1.195639926662, -0.073054454256, -0.170326608660, -0.157176968114, 0.556458812826, 0.000954876997, -0.000582090302, 0.000146229682, 0.000021354625, -0.000036486710]
Germanium;Ge;Metaloid;sp;32;0;32;1s^2 2s^2 2p^6 3s^2 3p^6 4s^2 3d^10 4p^2;No special;1S;-2075,359731251;0,2897;4;1;2;0;2;[1, 3, 1, 3, 2, 2, 1, 1, 1, 1, 2, 1];[76.555432, 45.858462, 33.610460, 23.935761, 15.346717, 12.026209, 11.159105, 6.438987, 4.028666, 2.450056, 0.836054, 0.758093];[0.002750362536, -0.011443816147, -0.155998362531, 0.011594429891, 1.318487143392, 1.257004208768, -1.365487541188, 0.066529272879, -0.000607404725, 0.001081449111, 0.000143684098, -0.000261346666]
Germanium;Ge;Metaloid;sp;32;0;32;1s^2 2s^2 2p^6 3s^2 3p^6 4s^2 3d^10 4p^2;No special;1S;-2075,359731251;0,2897;4;1;3;0;2;[1, 3, 1, 3, 2, 2, 1, 1, 1, 1, 2, 1];[76.555432, 45.858462, 33.610460, 23.935761, 15.346717, 12.026209, 11.159105, 6.438987, 4.028666, 2.450056, 0.836054, 0.758093];[0.001367403093, -0.005832499574, -0.068993540011, 0.017906347863, 0.089561720641, 1.250777850717, -0.741607510990, 2.365285900941, -3.530292406207, -0.034082971117, -0.000185120555, 0.000056851385]
Germanium;Ge;Metaloid;sp;32;0;32;1s^2 2s^2 2p^6 3s^2 3p^6 4s^2 3d^10 4p^2;No special;1S;-2075,359731251;0,2897;4;1;4;0;2;[1, 3, 1, 3, 2, 2, 1, 1, 1, 1, 2, 1];[76.555432, 45.858462, 33.610460, 23.935761, 15.346717, 12.026209, 11.159105, 6.438987, 4.028666, 2.450056, 0.836054, 0.758093];[0.000271246161, -0.001156119587, -0.020157351590, 0.011661039350, -0.041912905927, 0.416117350065, -0.138007444698, 0.431772552779, -0.157868235704, -1.752728488787, -1.092238429257, 3.166323756990]
Germanium;Ge;Metaloid;sp;32;0;32;1s^2 2s^2 2p^6 3s^2 3p^6 4s^2 3d^10 4p^2;No special;1S;-2075,359731251;0,2897;4;1;2;1;6;[2, 3, 2, 3, 2, 3, 3, 3, 2, 2, 2];[69.491987, 46.214210, 22.646499, 18.407375, 12.503901, 10.373220, 7.108357, 5.035482, 3.291863, 1.061577, 0.758093];[-0.000708882332, -0.005239703509, 0.459265854578, 0.410179059929, 1.580741218210, 0.100971151534, 0.005247786825, 0.002363757602, 0.000422536981, 0.000011757551, -0.000012982296]
Germanium;Ge;Metaloid;sp;32;0;32;1s^2 2s^2 2p^6 3s^2 3p^6 4s^2 3d^10 4p^2;No special;1S;-2075,359731251;0,2897;4;1;3;1;6;[2, 3, 2, 3, 2, 3, 3, 3, 2, 2, 2];[69.491987, 46.214210, 22.646499, 18.407375, 12.503901, 10.373220, 7.108357, 5.035482, 3.291863, 1.061577, 0.758093];[0.000359340145, 0.002626832800, -0.050874432264, 0.077562602807, -1.189306878538, 0.178269699347, 0.973362312304, 1.105293299544, 0.593538554013, 0.004302773682, -0.001168651556]
Germanium;Ge;Metaloid;sp;32;0;32;1s^2 2s^2 2p^6 3s^2 3p^6 4s^2 3d^10 4p^2;No special;1S;-2075,359731251;0,2897;4;1;4;1;2;[2, 3, 2, 3, 2, 3, 3, 3, 2, 2, 2];[69.491987, 46.214210, 22.646499, 18.407375, 12.503901, 10.373220, 7.108357, 5.035482, 3.291863, 1.061577, 0.758093];[-0.000029557063, -0.000226557013, 0.004867298818, -0.009544244490, 0.149427077793, 0.000127279221, -0.106042258390, 0.010444532844, -0.442859280001, 1.005776099059, 0.552640719050]
Germanium;Ge;Metaloid;sp;32;0;32;1s^2 2s^2 2p^6 3s^2 3p^6 4s^2 3d^10 4p^2;No special;1S;-2075,359731251;0,2897;4;1;3;2;10;[3, 4, 3, 3, 3, 3, 3, 3];[28.893923, 22.744772, 9.975534, 6.535857, 4.150742, 2.687443, 1.649905, 0.758093];[0.005554540710, 0.021714728237, 0.480832856378, 1.116096174746, 1.304789598956, 0.627859161455, 0.038570616849, -0.000124277512]
Arsenic;As;Metaloid;sp2;33;0;33;1s^2 2s^2 2p^6 3s^2 3p^6 4s^2 3d^10 4p^3;Half orbital;2D;-2234,238652211;0,3607;4;1;1;0;2;[1, 3, 1, 4, 2, 3, 3, 2, 2, 2, 2, 1];[54.206035, 39.953981, 33.575117, 22.687547, 14.286912, 13.481918, 6.115775, 5.148299, 3.641403, 1.809534, 1.278811, 0.859631];[-0.013843453719, 0.028076947539, 1.385578566162, -0.032214512159, 0.074740055401, -0.024779142933, -0.010558801299, 0.014498093177, -0.000183706342, -0.000134491710, 0.000199404112, -0.000149906638]
Arsenic;As;Metaloid;sp2;33;0;33;1s^2 2s^2 2p^6 3s^2 3p^6 4s^2 3d^10 4p^3;Half orbital;2D;-2234,238652211;0,3607;4;1;2;0;2;[1, 3, 1, 4, 2, 3, 3, 2, 2, 2, 2, 1];[54.206035, 39.953981, 33.575117, 22.687547, 14.286912, 13.481918, 6.115775, 5.148299, 3.641403, 1.809534, 1.278811, 0.859631];[0.066863875808, -0.074431049737, -0.560561022106, 0.146394579651, 1.123900832441, 0.273513569868, -0.058414798301, 0.096347117313, -0.006832914248, 0.000774706189, -0.000805960309, 0.000541219530]
Arsenic;As;Metaloid;sp2;33;0;33;1s^2 2s^2 2p^6 3s^2 3p^6 4s^2 3d^10 4p^3;Half orbital;2D;-2234,238652211;0,3607;4;1;3;0;2;[1, 3, 1, 4, 2, 3, 3, 2, 2, 2, 2, 1];[54.206035, 39.953981, 33.575117, 22.687547, 14.286912, 13.481918, 6.115775, 5.148299, 3.641403, 1.809534, 1.278811, 0.859631];[0.027803155794, -0.031324688985, -0.221944979423, 0.054815341942, 0.593377706399, 0.518009315913, -0.193155692512, -1.465258186693, -0.185973326093, 0.006913241578, -0.007156769154, 0.004385900521]
Arsenic;As;Metaloid;sp2;33;0;33;1s^2 2s^2 2p^6 3s^2 3p^6 4s^2 3d^10 4p^3;Half orbital;2D;-2234,238652211;0,3607;4;1;4;0;2;[1, 3, 1, 4, 2, 3, 3, 2, 2, 2, 2, 1];[54.206035, 39.953981, 33.575117, 22.687547, 14.286912, 13.481918, 6.115775, 5.148299, 3.641403, 1.809534, 1.278811, 0.859631];[0.007747910423, -0.008791317189, -0.061711330114, 0.013936367550, 0.171326740491, 0.174357117313, 0.019632536937, -0.357926138928, -0.713871106077, 0.687291810700, 1.012821145341, 0.098356573364]
Arsenic;As;Metaloid;sp2;33;0;33;1s^2 2s^2 2p^6 3s^2 3p^6 4s^2 3d^10 4p^3;Half orbital;2D;-2234,238652211;0,3607;4;1;2;1;6;[2, 3, 2, 3, 3, 2, 3, 3, 3, 2, 2];[50.718595, 41.198849, 24.082973, 19.047410, 13.627410, 6.013469, 5.462364, 4.087596, 1.841936, 1.059631, 0.859631];[-0.015086407326, -0.034426353590, 0.846676662399, 1.071935168431, 0.755025819336, 0.049211473677, -0.014617574989, 0.003917223997, -0.000727008556, 0.000945503041, -0.000439928358]
Arsenic;As;Metaloid;sp2;33;0;33;1s^2 2s^2 2p^6 3s^2 3p^6 4s^2 3d^10 4p^3;Half orbital;2D;-2234,238652211;0,3607;4;1;3;1;6;[2, 3, 2, 3, 3, 2, 3, 3, 3, 2, 2];[50.718595, 41.198849, 24.082973, 19.047410, 13.627410, 6.013469, 5.462364, 4.087596, 1.841936, 1.059631, 0.859631];[0.009287485309, 0.020811109804, -0.401894395721, -0.491418836738, -0.733959962599, 1.579911086136, 1.066300362227, 0.444981655143, 0.007218891221, -0.003970377924, 0.001440544918]
Arsenic;As;Metaloid;sp2;33;0;33;1s^2 2s^2 2p^6 3s^2 3p^6 4s^2 3d^10 4p^3;Half orbital;2D;-2234,238652211;0,3607;4;1;4;1;3;[2, 3, 2, 3, 3, 2, 3, 3, 3, 2, 2];[50.718595, 41.198849, 24.082973, 19.047410, 13.627410, 6.013469, 5.462364, 4.087596, 1.841936, 1.059631, 0.859631];[-0.001641637755, -0.003702605011, 0.066324209139, 0.078551795020, 0.133742208362, -0.327320536743, -0.137680199078, -0.298436684271, 0.374923181908, 1.183748647003, 0.342633597933]
Arsenic;As;Metaloid;sp2;33;0;33;1s^2 2s^2 2p^6 3s^2 3p^6 4s^2 3d^10 4p^3;Half orbital;2D;-2234,238652211;0,3607;4;1;3;2;10;[3, 4, 3, 3, 3, 3, 3, 3];[31.332509, 24.312793, 10.554143, 6.987846, 4.485271, 2.935044, 1.733242, 0.859631];[0.004502134705, 0.019752218721, 0.461953426292, 1.098935126340, 1.362695013875, 0.585511203941, 0.026001511833, -0.000079689397]
Selenium;Se;Non metal;sp2;34;0;34;1s^2 2s^2 2p^6 3s^2 3p^6 4s^2 3d^10 4p^4;No special;3F;-2399,867609593;0,3585;4;1;1;0;2;[1, 3, 1, 4, 2, 3, 3, 2, 2, 2, 2, 1];[56.828412, 41.684096, 34.728365, 23.727323, 14.086853, 14.072696, 6.512291, 5.392830, 3.949425, 1.993854, 1.411000, 0.897613];[0.016436131443, -0.029760710207, -1.384148937672, 0.035699700062, -0.094240787633, 0.042425841186, 0.017073093232, -0.024077551585, 0.001318047040, 0.000091075353, -0.000147078210, 0.000097156472]
Selenium;Se;Non metal;sp2;34;0;34;1s^2 2s^2 2p^6 3s^2 3p^6 4s^2 3d^10 4p^4;No special;3F;-2399,867609593;0,3585;4;1;2;0;2;[1, 3, 1, 4, 2, 3, 3, 2, 2, 2, 2, 1];[56.828412, 41.684096, 34.728365, 23.727323, 14.086853, 14.072696, 6.512291, 5.392830, 3.949425, 1.993854, 1.411000, 0.897613];[0.062867166859, -0.072488344567, -0.553946179589, 0.148405449915, 1.226351129804, 0.137585301949, -0.088983590137, 0.145457521744, -0.015172814468, 0.001632285294, -0.001326249479, 0.000710500894]
Selenium;Se;Non metal;sp2;34;0;34;1s^2 2s^2 2p^6 3s^2 3p^6 4s^2 3d^10 4p^4;No special;3F;-2399,867609593;0,3585;4;1;3;0;2;[1, 3, 1, 4, 2, 3, 3, 2, 2, 2, 2, 1];[56.828412, 41.684096, 34.728365, 23.727323, 14.086853, 14.072696, 6.512291, 5.392830, 3.949425, 1.993854, 1.411000, 0.897613];[-0.026295745557, 0.030720395530, 0.221241125333, -0.055576471681, -0.645984188178, -0.432118186573, 0.337100147166, 1.267080480400, 0.220852358024, -0.006288583448, 0.005990042965, -0.002771858582]
Selenium;Se;Non metal;sp2;34;0;34;1s^2 2s^2 2p^6 3s^2 3p^6 4s^2 3d^10 4p^4;No special;3F;-2399,867609593;0,3585;4;1;4;0;2;[1, 3, 1, 4, 2, 3, 3, 2, 2, 2, 2, 1];[56.828412, 41.684096, 34.728365, 23.727323, 14.086853, 14.072696, 6.512291, 5.392830, 3.949425, 1.993854, 1.411000, 0.897613];[0.007759648395, -0.009132142658, -0.065205568984, 0.014909770745, 0.199032315549, 0.159351887152, -0.014305194447, -0.259365070283, -0.865690608953, 0.726977188845, 1.034044531115, 0.090865908388]
Selenium;Se;Non metal;sp2;34;0;34;1s^2 2s^2 2p^6 3s^2 3p^6 4s^2 3d^10 4p^4;No special;3F;-2399,867609593;0,3585;4;1;2;1;6;[2, 3, 2, 3, 3, 2, 3, 3, 3, 2, 2];[52.491766, 42.761369, 25.120026, 19.850208, 14.194446, 6.300767, 5.743780, 4.284076, 1.319656, 1.131217, 0.897613];[-0.015853832462, -0.035280490663, 0.831346530844, 1.065893746929, 0.774606305493, 0.054283632088, -0.017065595038, 0.004763767652, 0.001503986702, -0.001637973791, -0.000237845454]
Selenium;Se;Non metal;sp2;34;0;34;1s^2 2s^2 2p^6 3s^2 3p^6 4s^2 3d^10 4p^4;No special;3F;-2399,867609593;0,3585;4;1;3;1;6;[2, 3, 2, 3, 3, 2, 3, 3, 3, 2, 2];[52.491766, 42.761369, 25.120026, 19.850208, 14.194446, 6.300767, 5.743780, 4.284076, 1.319656, 1.131217, 0.897613];[-0.009699244534, -0.021291209793, 0.399305040114, 0.493797046329, 0.744568212777, -1.528011787364, -1.155613167330, -0.400949382578, 0.009361704848, -0.016206803934, 0.000851687584]
Selenium;Se;Non metal;sp2;34;0;34;1s^2 2s^2 2p^6 3s^2 3p^6 4s^2 3d^10 4p^4;No special;3F;-2399,867609593;0,3585;4;1;4;1;4;[2, 3, 2, 3, 3, 2, 3, 3, 3, 2, 2];[52.491766, 42.761369, 25.120026, 19.850208, 14.194446, 6.300767, 5.743780, 4.284076, 1.319656, 1.131217, 0.897613];[-0.002118800000, -0.004667200000, 0.082509200000, 0.099365000000, 0.169966600000, -0.421585000000, -0.196419400000, -0.486190800000, -1.014003800000, 3.019481000000, 0.230821200000]
Selenium;Se;Non metal;sp2;34;0;34;1s^2 2s^2 2p^6 3s^2 3p^6 4s^2 3d^10 4p^4;No special;3F;-2399,867609593;0,3585;4;1;3;2;10;[3, 4, 3, 3, 3, 3, 3, 3];[31.897983, 24.931347, 10.860020, 7.194093, 4.709428, 3.150997, 1.826977, 0.897613];[0.004863266814, 0.020308147134, 0.503086436728, 1.115700573811, 1.360063998862, 0.506035576874, 0.020132640723, -0.000189104204]
Bromine;Br;Non metal;sp3;35;0;35;1s^2 2s^2 2p^6 3s^2 3p^6 4s^2 3d^10 4p^5;No special;4F;-2572,44133138;0,4353;4;1;1;0;2;[1, 3, 1, 4, 2, 3, 3, 2, 2, 2, 2, 1];[58.508039, 43.044755, 35.835678, 24.607114, 14.767152, 14.754419, 6.850776, 5.703885, 4.364524, 2.073131, 1.496008, 0.956123];[0.018739461072, -0.031018794592, -1.384476045269, 0.035891467421, -0.094866577135, 0.040911077039, 0.014466839058, -0.020690651524, 0.001136744861, 0.000117803990, -0.000157401969, 0.000098712107]
Bromine;Br;Non metal;sp3;35;0;35;1s^2 2s^2 2p^6 3s^2 3p^6 4s^2 3d^10 4p^5;No special;4F;-2572,44133138;0,4353;4;1;2;0;2;[1, 3, 1, 4, 2, 3, 3, 2, 2, 2, 2, 1];[58.508039, 43.044755, 35.835678, 24.607114, 14.767152, 14.754419, 6.850776, 5.703885, 4.364524, 2.073131, 1.496008, 0.956123];[0.063667187471, -0.071708122944, -0.555007688289, 0.149899283701, 1.166183130950, 0.194605544256, -0.093814967930, 0.157055911433, -0.017132348780, 0.001032800165, -0.000906510893, 0.000472630173]
Bromine;Br;Non metal;sp3;35;0;35;1s^2 2s^2 2p^6 3s^2 3p^6 4s^2 3d^10 4p^5;No special;4F;-2572,44133138;0,4353;4;1;3;0;2;[1, 3, 1, 4, 2, 3, 3, 2, 2, 2, 2, 1];[58.508039, 43.044755, 35.835678, 24.607114, 14.767152, 14.754419, 6.850776, 5.703885, 4.364524, 2.073131, 1.496008, 0.956123];[-0.026745324049, 0.030605419967, 0.223590416902, -0.054888739626, -0.605880627083, -0.446363418366, 0.499495139061, 0.984620878380, 0.317948018576, -0.003149029339, 0.004600719561, -0.002012567321]
Bromine;Br;Non metal;sp3;35;0;35;1s^2 2s^2 2p^6 3s^2 3p^6 4s^2 3d^10 4p^5;No special;4F;-2572,44133138;0,4353;4;1;4;0;2;[1, 3, 1, 4, 2, 3, 3, 2, 2, 2, 2, 1];[58.508039, 43.044755, 35.835678, 24.607114, 14.767152, 14.754419, 6.850776, 5.703885, 4.364524, 2.073131, 1.496008, 0.956123];[0.008227470242, -0.009507757780, -0.068845471851, 0.014926458465, 0.197352936944, 0.172701214653, -0.044780648188, -0.071918840765, -1.059323739963, 0.878356588460, 0.929072266706, 0.059497378783]
Bromine;Br;Non metal;sp3;35;0;35;1s^2 2s^2 2p^6 3s^2 3p^6 4s^2 3d^10 4p^5;No special;4F;-2572,44133138;0,4353;4;1;2;1;6;[2, 3, 2, 3, 3, 2, 3, 3, 3, 2, 2];[53.964914, 44.074427, 25.967586, 20.612559, 14.804998, 7.130435, 6.280038, 4.641256, 1.483284, 1.265163, 0.956123];[-0.015518742265, -0.033879627479, 0.823800387793, 1.045002048913, 0.788865520133, 0.062907305676, -0.014172502703, 0.004219735980, 0.001358731960, -0.001624256648, -0.000121739640]
Bromine;Br;Non metal;sp3;35;0;35;1s^2 2s^2 2p^6 3s^2 3p^6 4s^2 3d^10 4p^5;No special;4F;-2572,44133138;0,4353;4;1;3;1;6;[2, 3, 2, 3, 3, 2, 3, 3, 3, 2, 2];[53.964914, 44.074427, 25.967586, 20.612559, 14.804998, 7.130435, 6.280038, 4.641256, 1.483284, 1.265163, 0.956123];[-0.009677933974, -0.020862549088, 0.400292919327, 0.486739086584, 0.750364440355, -1.201674842147, -1.409833950183, -0.483967243991, 0.013661049244, -0.023596179641, 0.000594491161]