Element name;Symbol;clasificacion;Possible hybridization;Z;Q;N;Complete electronic configuration;Special configuration;Config;Energy;Ionization;Valence_n;Valence_l;n;l;mz;N_list;A_list;C_list
Dysprosium;Dy;Lanthanide;Likely without hybridisation;66;0;66;1s^2 2s^2 2p^6 3s^2 3p^6 4s^2 3d^10 4p^6 5s^2 4d^10 5p^6 6s^2 4f^10;No special;3P;-11641,452434124;0,25;4;3;4;1;6;[2, 2, 3, 4, 3, 3, 3, 4, 3, 3];[59.112075, 34.352966, 30.233389, 23.326779, 17.106021, 12.284446, 7.875620, 6.482252, 2.749806, 1.839803];[0.005207860142, 0.428706265496, 0.457351333395, 0.567336852132, -2.244343262182, -0.983508098818, 2.804077632999, 0.735380176752, 0.021194454948, -0.004755684336]
Dysprosium;Dy;Lanthanide;Likely without hybridisation;66;0;66;1s^2 2s^2 2p^6 3s^2 3p^6 4s^2 3d^10 4p^6 5s^2 4d^10 5p^6 6s^2 4f^10;No special;3P;-11641,452434124;0,25;4;3;5;1;6;[2, 2, 3, 4, 3, 3, 3, 4, 3, 3];[59.112075, 34.352966, 30.233389, 23.326779, 17.106021, 12.284446, 7.875620, 6.482252, 2.749806, 1.839803];[-0.002009071487, -0.143466859184, -0.170145476717, -0.239285264095, 0.862310530682, 0.377492578903, -1.257089403649, -0.618932659125, 1.935770996376, 1.003902060519]
Dysprosium;Dy;Lanthanide;Likely without hybridisation;66;0;66;1s^2 2s^2 2p^6 3s^2 3p^6 4s^2 3d^10 4p^6 5s^2 4d^10 5p^6 6s^2 4f^10;No special;3P;-11641,452434124;0,25;4;3;3;2;10;[3, 3, 4, 4, 4, 4, 4];[41.304364, 23.145620, 18.693305, 13.360685, 10.318990, 6.838979, 4.431722];[0.014984768920, 1.371885857667, 1.529977288504, 0.505285168386, -0.001363257899, 0.006207234819, 0.000011384200]
Dysprosium;Dy;Lanthanide;Likely without hybridisation;66;0;66;1s^2 2s^2 2p^6 3s^2 3p^6 4s^2 3d^10 4p^6 5s^2 4d^10 5p^6 6s^2 4f^10;No special;3P;-11641,452434124;0,25;4;3;4;2;10;[3, 3, 4, 4, 4, 4, 4];[41.304364, 23.145620, 18.693305, 13.360685, 10.318990, 6.838979, 4.431722];[-0.005205741484, -0.660169417220, -0.761281980492, -0.319046304095, 1.532031504072, 1.954337874199, 0.338637879111]
Dysprosium;Dy;Lanthanide;Likely without hybridisation;66;0;66;1s^2 2s^2 2p^6 3s^2 3p^6 4s^2 3d^10 4p^6 5s^2 4d^10 5p^6 6s^2 4f^10;No special;3P;-11641,452434124;0,25;4;3;4;3;10;[4, 4, 4, 4, 4, 4];[20.228223, 11.715340, 7.580714, 4.847854, 2.987440, 1.843671];[0.067186067396, 0.642917295217, 1.172625050200, 1.159995229453, 0.655810217465, 0.156364511007]
Holmium;Ho;Lanthanide;Likely without hybridisation;67;0;67;1s^2 2s^2 2p^6 3s^2 3p^6 4s^2 3d^10 4p^6 5s^2 4d^10 5p^6 6s^2 4f^11;No special;1D;-12065,289636642;0,2213;4;3;1;0;2;[1, 1, 2, 2, 3, 3, 3, 3, 3, 3, 3, 3, 3];[84.799047, 65.843872, 54.615194, 31.642320, 28.972112, 18.655894, 15.595011, 8.081194, 6.468844, 3.164079, 2.308228, 0.914799, 0.647160];[0.068388963713, 1.339807119952, 0.008472836295, 0.002919502478, -0.002022891080, 0.001662549464, -0.001228244479, 0.000393151370, -0.000269407684, 0.000066750880, -0.000038466609, 0.000009616652, -0.000005515433]
Holmium;Ho;Lanthanide;Likely without hybridisation;67;0;67;1s^2 2s^2 2p^6 3s^2 3p^6 4s^2 3d^10 4p^6 5s^2 4d^10 5p^6 6s^2 4f^11;No special;1D;-12065,289636642;0,2213;4;3;2;0;2;[1, 1, 2, 2, 3, 3, 3, 3, 3, 3, 3, 3, 3];[84.799047, 65.843872, 54.615194, 31.642320, 28.972112, 18.655894, 15.595011, 8.081194, 6.468844, 3.164079, 2.308228, 0.914799, 0.647160];[0.020746230117, -0.505249149783, -0.345797419153, 1.537792493201, 0.240538917919, 0.019934188690, -0.008616661814, 0.000821658080, -0.000655346565, 0.000163058824, -0.000085559921, 0.000020647518, -0.000011737973]
Holmium;Ho;Lanthanide;Likely without hybridisation;67;0;67;1s^2 2s^2 2p^6 3s^2 3p^6 4s^2 3d^10 4p^6 5s^2 4d^10 5p^6 6s^2 4f^11;No special;1D;-12065,289636642;0,2213;4;3;3;0;2;[1, 1, 2, 2, 3, 3, 3, 3, 3, 3, 3, 3, 3];[84.799047, 65.843872, 54.615194, 31.642320, 28.972112, 18.655894, 15.595011, 8.081194, 6.468844, 3.164079, 2.308228, 0.914799, 0.647160];[-0.007528424478, 0.231577753681, 0.179487177010, -0.779201267276, -0.561070704674, 0.546707527470, 1.322256163957, 0.058764533315, -0.024629801981, 0.003503996943, -0.001921209124, 0.000423981226, -0.000238436407]
Holmium;Ho;Lanthanide;Likely without hybridisation;67;0;67;1s^2 2s^2 2p^6 3s^2 3p^6 4s^2 3d^10 4p^6 5s^2 4d^10 5p^6 6s^2 4f^11;No special;1D;-12065,289636642;0,2213;4;3;4;0;2;[1, 1, 2, 2, 3, 3, 3, 3, 3, 3, 3, 3, 3];[84.799047, 65.843872, 54.615194, 31.642320, 28.972112, 18.655894, 15.595011, 8.081194, 6.468844, 3.164079, 2.308228, 0.914799, 0.647160];[0.001336148974, -0.107805782702, -0.092377561265, 0.389167247892, 0.292210321690, 0.273681861282, -1.916553392015, 1.379130318003, 0.642049846048, 0.010286140925, -0.001998283764, 0.000337572777, -0.000176776695]
Holmium;Ho;Lanthanide;Likely without hybridisation;67;0;67;1s^2 2s^2 2p^6 3s^2 3p^6 4s^2 3d^10 4p^6 5s^2 4d^10 5p^6 6s^2 4f^11;No special;1D;-12065,289636642;0,2213;4;3;5;0;2;[1, 1, 2, 2, 3, 3, 3, 3, 3, 3, 3, 3, 3];[84.799047, 65.843872, 54.615194, 31.642320, 28.972112, 18.655894, 15.595011, 8.081194, 6.468844, 3.164079, 2.308228, 0.914799, 0.647160];[-0.001100965258, 0.041065367739, 0.033398067489, -0.143330544547, -0.115677861076, -0.149519850202, 0.840008914924, -0.498977819740, -0.779108777709, 1.174722435282, 0.610002918196, -0.001358776391, 0.000806384573]
Holmium;Ho;Lanthanide;Likely without hybridisation;67;0;67;1s^2 2s^2 2p^6 3s^2 3p^6 4s^2 3d^10 4p^6 5s^2 4d^10 5p^6 6s^2 4f^11;No special;1D;-12065,289636642;0,2213;4;3;6;0;2;[1, 1, 2, 2, 3, 3, 3, 3, 3, 3, 3, 3, 3];[84.799047, 65.843872, 54.615194, 31.642320, 28.972112, 18.655894, 15.595011, 8.081194, 6.468844, 3.164079, 2.308228, 0.914799, 0.647160];[0.000038749452, -0.009766700283, -0.008677331576, 0.036162996425, 0.026842480521, 0.044904674718, -0.218219092371, 0.130950094757, 0.202878693596, -0.300777486030, -0.317148139385, 0.924523165940, 0.630860022657]
Holmium;Ho;Lanthanide;Likely without hybridisation;67;0;67;1s^2 2s^2 2p^6 3s^2 3p^6 4s^2 3d^10 4p^6 5s^2 4d^10 5p^6 6s^2 4f^11;No special;1D;-12065,289636642;0,2213;4;3;2;1;6;[2, 2, 3, 4, 3, 3, 3, 4, 3, 3];[60.023728, 34.882305, 30.725141, 23.756830, 17.381020, 12.417609, 8.055475, 6.614935, 2.795860, 1.865851];[-0.025135928894, -1.856850396455, -0.634830827351, -0.051167636186, 0.032476314806, -0.008367212012, 0.002590825301, -0.000613842130, 0.000126148722, -0.000050704438]
Holmium;Ho;Lanthanide;Likely without hybridisation;67;0;67;1s^2 2s^2 2p^6 3s^2 3p^6 4s^2 3d^10 4p^6 5s^2 4d^10 5p^6 6s^2 4f^11;No special;1D;-12065,289636642;0,2213;4;3;3;1;6;[2, 2, 3, 4, 3, 3, 3, 4, 3, 3];[60.023728, 34.882305, 30.725141, 23.756830, 17.381020, 12.417609, 8.055475, 6.614935, 2.795860, 1.865851];[-0.008649638180, -0.923421135632, -0.659158669579, -0.300587664092, 2.721652548104, 0.580763240259, -0.008695198689, 0.004491139443, -0.000586162895, 0.000219474281]
Holmium;Ho;Lanthanide;Likely without hybridisation;67;0;67;1s^2 2s^2 2p^6 3s^2 3p^6 4s^2 3d^10 4p^6 5s^2 4d^10 5p^6 6s^2 4f^11;No special;1D;-12065,289636642;0,2213;4;3;4;1;6;[2, 2, 3, 4, 3, 3, 3, 4, 3, 3];[60.023728, 34.882305, 30.725141, 23.756830, 17.381020, 12.417609, 8.055475, 6.614935, 2.795860, 1.865851];[0.005147357745, 0.431529792323, 0.460140077467, 0.564869971012, -2.283816299489, -0.964342556224, 2.809953224046, 0.747401292614, 0.021192250408, -0.004726535408]
Holmium;Ho;Lanthanide;Likely without hybridisation;67;0;67;1s^2 2s^2 2p^6 3s^2 3p^6 4s^2 3d^10 4p^6 5s^2 4d^10 5p^6 6s^2 4f^11;No special;1D;-12065,289636642;0,2213;4;3;5;1;6;[2, 2, 3, 4, 3, 3, 3, 4, 3, 3];[60.023728, 34.882305, 30.725141, 23.756830, 17.381020, 12.417609, 8.055475, 6.614935, 2.795860, 1.865851];[-0.001974288733, -0.143557980202, -0.170061459219, -0.236514646247, 0.871287175743, 0.369095973014, -1.251627041523, -0.614703370135, 1.916572140721, 1.016160042039]
Holmium;Ho;Lanthanide;Likely without hybridisation;67;0;67;1s^2 2s^2 2p^6 3s^2 3p^6 4s^2 3d^10 4p^6 5s^2 4d^10 5p^6 6s^2 4f^11;No special;1D;-12065,289636642;0,2213;4;3;3;2;10;[3, 3, 4, 4, 4, 4, 4];[42.149351, 23.588381, 19.082168, 13.653646, 10.485149, 6.956310, 4.500166];[0.014263769614, 1.369947065233, 1.529496938527, 0.505793662633, -0.000237803280, 0.006270480372, 0.000067988970]
Holmium;Ho;Lanthanide;Likely without hybridisation;67;0;67;1s^2 2s^2 2p^6 3s^2 3p^6 4s^2 3d^10 4p^6 5s^2 4d^10 5p^6 6s^2 4f^11;No special;1D;-12065,289636642;0,2213;4;3;4;2;10;[3, 3, 4, 4, 4, 4, 4];[42.149351, 23.588381, 19.082168, 13.653646, 10.485149, 6.956310, 4.500166];[-0.004953391727, -0.661385945435, -0.768369277184, -0.300362935224, 1.546588416825, 1.936909297103, 0.328171056284]
Holmium;Ho;Lanthanide;Likely without hybridisation;67;0;67;1s^2 2s^2 2p^6 3s^2 3p^6 4s^2 3d^10 4p^6 5s^2 4d^10 5p^6 6s^2 4f^11;No special;1D;-12065,289636642;0,2213;4;3;4;3;11;[4, 4, 4, 4, 4, 4];[20.613942, 11.971861, 7.727813, 4.914573, 3.010806, 1.850632];[0.070855045371, 0.687788714187, 1.247254230273, 1.213176905540, 0.672520300302, 0.156843517998]
Erbium;Er;Lanthanide;Likely without hybridisation;68;0;68;1s^2 2s^2 2p^6 3s^2 3p^6 4s^2 3d^10 4p^6 5s^2 4d^10 5p^6 6s^2 4f^12;No special;1S;-12498,152612131;0,2235;4;3;1;0;2;[1, 1, 2, 2, 3, 3, 3, 3, 3, 3, 3, 3, 3];[85.931072, 66.831633, 55.449578, 32.064174, 29.377976, 19.035249, 15.883516, 8.283918, 6.636024, 3.191019, 2.316595, 0.928801, 0.654626];[0.068635602559, 1.339688184591, 0.008301009347, 0.002901966230, -0.002036750373, 0.001671317588, -0.001223860417, 0.000388908730, -0.000261770930, 0.000061801133, -0.000036203867, 0.000009333810, -0.000005232590]
Erbium;Er;Lanthanide;Likely without hybridisation;68;0;68;1s^2 2s^2 2p^6 3s^2 3p^6 4s^2 3d^10 4p^6 5s^2 4d^10 5p^6 6s^2 4f^12;No special;1S;-12498,152612131;0,2235;4;3;2;0;2;[1, 1, 2, 2, 3, 3, 3, 3, 3, 3, 3, 3, 3];[85.931072, 66.831633, 55.449578, 32.064174, 29.377976, 19.035249, 15.883516, 8.283918, 6.636024, 3.191019, 2.316595, 0.928801, 0.654626];[0.021028931408, -0.506025835871, -0.346261705466, 1.546944152006, 0.231175975608, 0.019445860747, -0.008312888741, 0.000804263253, -0.000634699047, 0.000151745115, -0.000080751594, 0.000020364675, -0.000011455130]
Erbium;Er;Lanthanide;Likely without hybridisation;68;0;68;1s^2 2s^2 2p^6 3s^2 3p^6 4s^2 3d^10 4p^6 5s^2 4d^10 5p^6 6s^2 4f^12;No special;1S;-12498,152612131;0,2235;4;3;3;0;2;[1, 1, 2, 2, 3, 3, 3, 3, 3, 3, 3, 3, 3];[85.931072, 66.831633, 55.449578, 32.064174, 29.377976, 19.035249, 15.883516, 8.283918, 6.636024, 3.191019, 2.316595, 0.928801, 0.654626];[-0.007559112912, 0.232261667360, 0.180285500566, -0.785817241163, -0.564513041906, 0.549454495894, 1.327157262479, 0.058901146345, -0.024064965084, 0.003243498805, -0.001807789197, 0.000416768737, -0.000232355288]
Erbium;Er;Lanthanide;Likely without hybridisation;68;0;68;1s^2 2s^2 2p^6 3s^2 3p^6 4s^2 3d^10 4p^6 5s^2 4d^10 5p^6 6s^2 4f^12;No special;1S;-12498,152612131;0,2235;4;3;4;0;2;[1, 1, 2, 2, 3, 3, 3, 3, 3, 3, 3, 3, 3];[85.931072, 66.831633, 55.449578, 32.064174, 29.377976, 19.035249, 15.883516, 8.283918, 6.636024, 3.191019, 2.316595, 0.928801, 0.654626];[0.001377726852, -0.108317869433, -0.092785703299, 0.392729651855, 0.294909489696, 0.269079586086, -1.921457318964, 1.328236307427, 0.696388173755, 0.010874878031, -0.002343351873, 0.000410829040, -0.000214394776]
Erbium;Er;Lanthanide;Likely without hybridisation;68;0;68;1s^2 2s^2 2p^6 3s^2 3p^6 4s^2 3d^10 4p^6 5s^2 4d^10 5p^6 6s^2 4f^12;No special;1S;-12498,152612131;0,2235;4;3;5;0;2;[1, 1, 2, 2, 3, 3, 3, 3, 3, 3, 3, 3, 3];[85.931072, 66.831633, 55.449578, 32.064174, 29.377976, 19.035249, 15.883516, 8.283918, 6.636024, 3.191019, 2.316595, 0.928801, 0.654626];[-0.001150038469, 0.041137209788, 0.033343337424, -0.143912352006, -0.116574613896, -0.145634015597, 0.836740525960, -0.470691427172, -0.794206073173, 1.198772692545, 0.576578404913, -0.002149180351, 0.001147775727]
Erbium;Er;Lanthanide;Likely without hybridisation;68;0;68;1s^2 2s^2 2p^6 3s^2 3p^6 4s^2 3d^10 4p^6 5s^2 4d^10 5p^6 6s^2 4f^12;No special;1S;-12498,152612131;0,2235;4;3;6;0;2;[1, 1, 2, 2, 3, 3, 3, 3, 3, 3, 3, 3, 3];[85.931072, 66.831633, 55.449578, 32.064174, 29.377976, 19.035249, 15.883516, 8.283918, 6.636024, 3.191019, 2.316595, 0.928801, 0.654626];[0.000059962655, -0.009721869713, -0.008571972666, 0.035976885920, 0.026911918407, 0.043189233667, -0.215158027115, 0.121860802771, 0.205826904609, -0.307959711028, -0.302623600414, 0.903382087396, 0.652196121251]
Erbium;Er;Lanthanide;Likely without hybridisation;68;0;68;1s^2 2s^2 2p^6 3s^2 3p^6 4s^2 3d^10 4p^6 5s^2 4d^10 5p^6 6s^2 4f^12;No special;1S;-12498,152612131;0,2235;4;3;2;1;6;[2, 2, 3, 4, 3, 3, 3, 4, 3, 3];[61.043988, 35.420505, 31.217644, 24.193456, 17.664179, 12.614001, 8.181173, 6.710377, 2.843177, 1.891215];[-0.024515718091, -1.859886783940, -0.631921813333, -0.049296470971, 0.030571101684, -0.007893725645, 0.002460757396, -0.000582488661, 0.000120024997, -0.000047765050]
Erbium;Er;Lanthanide;Likely without hybridisation;68;0;68;1s^2 2s^2 2p^6 3s^2 3p^6 4s^2 3d^10 4p^6 5s^2 4d^10 5p^6 6s^2 4f^12;No special;1S;-12498,152612131;0,2235;4;3;3;1;6;[2, 2, 3, 4, 3, 3, 3, 4, 3, 3];[61.043988, 35.420505, 31.217644, 24.193456, 17.664179, 12.614001, 8.181173, 6.710377, 2.843177, 1.891215];[-0.008382888747, -0.927339829323, -0.658136497509, -0.283795432109, 2.719446782590, 0.567378248509, -0.008587911038, 0.004408101741, -0.000560688202, 0.000208206628]
Erbium;Er;Lanthanide;Likely without hybridisation;68;0;68;1s^2 2s^2 2p^6 3s^2 3p^6 4s^2 3d^10 4p^6 5s^2 4d^10 5p^6 6s^2 4f^12;No special;1S;-12498,152612131;0,2235;4;3;4;1;6;[2, 2, 3, 4, 3, 3, 3, 4, 3, 3];[61.043988, 35.420505, 31.217644, 24.193456, 17.664179, 12.614001, 8.181173, 6.710377, 2.843177, 1.891215];[0.005016554993, 0.434146337266, 0.463594102954, 0.564344310513, -2.320136353599, -0.924387704285, 2.821223081403, 0.726354786846, 0.020422620730, -0.004459051128]
Erbium;Er;Lanthanide;Likely without hybridisation;68;0;68;1s^2 2s^2 2p^6 3s^2 3p^6 4s^2 3d^10 4p^6 5s^2 4d^10 5p^6 6s^2 4f^12;No special;1S;-12498,152612131;0,2235;4;3;5;1;6;[2, 2, 3, 4, 3, 3, 3, 4, 3, 3];[61.043988, 35.420505, 31.217644, 24.193456, 17.664179, 12.614001, 8.181173, 6.710377, 2.843177, 1.891215];[-0.001914521183, -0.143601581120, -0.169653619177, -0.232117077312, 0.873816273902, 0.357457222501, -1.256403791470, -0.594250130783, 1.900279114748, 1.028244354736]
Erbium;Er;Lanthanide;Likely without hybridisation;68;0;68;1s^2 2s^2 2p^6 3s^2 3p^6 4s^2 3d^10 4p^6 5s^2 4d^10 5p^6 6s^2 4f^12;No special;1S;-12498,152612131;0,2235;4;3;3;2;10;[3, 3, 4, 4, 4, 4, 4];[42.909407, 24.019173, 19.467034, 13.956931, 10.665832, 7.079897, 4.572507];[0.013783419637, 1.369554310348, 1.526673657032, 0.505950827833, 0.001874914425, 0.006187312470, 0.000150524417]
Erbium;Er;Lanthanide;Likely without hybridisation;68;0;68;1s^2 2s^2 2p^6 3s^2 3p^6 4s^2 3d^10 4p^6 5s^2 4d^10 5p^6 6s^2 4f^12;No special;1S;-12498,152612131;0,2235;4;3;4;2;10;[3, 3, 4, 4, 4, 4, 4];[42.909407, 24.019173, 19.467034, 13.956931, 10.665832, 7.079897, 4.572507];[-0.004787055922, -0.663280782209, -0.773526003365, -0.286305662341, 1.557569426000, 1.923967359551, 0.320543326340]
Erbium;Er;Lanthanide;Likely without hybridisation;68;0;68;1s^2 2s^2 2p^6 3s^2 3p^6 4s^2 3d^10 4p^6 5s^2 4d^10 5p^6 6s^2 4f^12;No special;1S;-12498,152612131;0,2235;4;3;4;3;12;[4, 4, 4, 4, 4, 4];[21.070163, 12.313465, 7.999007, 5.097240, 3.114795, 1.896657];[0.072597870369, 0.706735619216, 1.283587866063, 1.272855386439, 0.721105405535, 0.177295145534]
Thulium;Tm;Lanthanide;Likely without hybridisation;69;0;69;1s^2 2s^2 2p^6 3s^2 3p^6 4s^2 3d^10 4p^6 5s^2 4d^10 5p^6 6s^2 4f^13;No special;2P;-12940,174228351;0,2136;4;3;1;0;2;[1, 1, 2, 2, 3, 3, 3, 3, 3, 3, 3, 3, 3];[86.510536, 67.746514, 56.182403, 32.500079, 29.732223, 19.530983, 16.170154, 8.413489, 6.712172, 3.262439, 2.366025, 0.935103, 0.657290];[0.074359914795, 1.334774499569, 0.007208387949, 0.003099107601, -0.002196273662, 0.001750230705, -0.001234891283, 0.000393717056, -0.000265447886, 0.000064488138, -0.000037052395, 0.000009333810, -0.000005232590]
Thulium;Tm;Lanthanide;Likely without hybridisation;69;0;69;1s^2 2s^2 2p^6 3s^2 3p^6 4s^2 3d^10 4p^6 5s^2 4d^10 5p^6 6s^2 4f^13;No special;2P;-12940,174228351;0,2136;4;3;2;0;2;[1, 1, 2, 2, 3, 3, 3, 3, 3, 3, 3, 3, 3];[86.510536, 67.746514, 56.182403, 32.500079, 29.732223, 19.530983, 16.170154, 8.413489, 6.712172, 3.262439, 2.366025, 0.935103, 0.657290];[0.022650892943, -0.509247414366, -0.347097222838, 1.557672941775, 0.222460460266, 0.017294417654, -0.006802932920, 0.000566251110, -0.000481398297, 0.000122046630, -0.000062649661, 0.000015273506, -0.000008626703]
Thulium;Tm;Lanthanide;Likely without hybridisation;69;0;69;1s^2 2s^2 2p^6 3s^2 3p^6 4s^2 3d^10 4p^6 5s^2 4d^10 5p^6 6s^2 4f^13;No special;2P;-12940,174228351;0,2136;4;3;3;0;2;[1, 1, 2, 2, 3, 3, 3, 3, 3, 3, 3, 3, 3];[86.510536, 67.746514, 56.182403, 32.500079, 29.732223, 19.530983, 16.170154, 8.413489, 6.712172, 3.262439, 2.366025, 0.935103, 0.657290];[-0.008111221887, 0.233946561398, 0.181565080997, -0.793869348924, -0.571974432661, 0.544206915049, 1.345716411322, 0.057553683662, -0.023364080843, 0.003263722059, -0.001782474774, 0.000398242539, -0.000223162900]
Thulium;Tm;Lanthanide;Likely without hybridisation;69;0;69;1s^2 2s^2 2p^6 3s^2 3p^6 4s^2 3d^10 4p^6 5s^2 4d^10 5p^6 6s^2 4f^13;No special;2P;-12940,174228351;0,2136;4;3;4;0;2;[1, 1, 2, 2, 3, 3, 3, 3, 3, 3, 3, 3, 3];[86.510536, 67.746514, 56.182403, 32.500079, 29.732223, 19.530983, 16.170154, 8.413489, 6.712172, 3.262439, 2.366025, 0.935103, 0.657290];[0.001490156831, -0.109061180082, -0.093689102923, 0.397480136633, 0.298022598010, 0.248284848443, -1.906853301191, 1.358583209155, 0.665912720014, 0.010195206993, -0.001979191881, 0.000341673997, -0.000178615173]
Thulium;Tm;Lanthanide;Likely without hybridisation;69;0;69;1s^2 2s^2 2p^6 3s^2 3p^6 4s^2 3d^10 4p^6 5s^2 4d^10 5p^6 6s^2 4f^13;No special;2P;-12940,174228351;0,2136;4;3;5;0;2;[1, 1, 2, 2, 3, 3, 3, 3, 3, 3, 3, 3, 3];[86.510536, 67.746514, 56.182403, 32.500079, 29.732223, 19.530983, 16.170154, 8.413489, 6.712172, 3.262439, 2.366025, 0.935103, 0.657290];[-0.001196283252, 0.041238326057, 0.033570318701, -0.145138192322, -0.117054173715, -0.136177028084, 0.827015827820, -0.492640870189, -0.768454516994, 1.161667829888, 0.613654417614, -0.001423830215, 0.000843154126]
Thulium;Tm;Lanthanide;Likely without hybridisation;69;0;69;1s^2 2s^2 2p^6 3s^2 3p^6 4s^2 3d^10 4p^6 5s^2 4d^10 5p^6 6s^2 4f^13;No special;2P;-12940,174228351;0,2136;4;3;6;0;2;[1, 1, 2, 2, 3, 3, 3, 3, 3, 3, 3, 3, 3];[86.510536, 67.746514, 56.182403, 32.500079, 29.732223, 19.530983, 16.170154, 8.413489, 6.712172, 3.262439, 2.366025, 0.935103, 0.657290];[0.000048224682, -0.009644795074, -0.008588943228, 0.036053819138, 0.026694553782, 0.040520612675, -0.211045635497, 0.127005570289, 0.196772260855, -0.293342258226, -0.309098011524, 0.908470852057, 0.644293213022]
Thulium;Tm;Lanthanide;Likely without hybridisation;69;0;69;1s^2 2s^2 2p^6 3s^2 3p^6 4s^2 3d^10 4p^6 5s^2 4d^10 5p^6 6s^2 4f^13;No special;2P;-12940,174228351;0,2136;4;3;2;1;6;[2, 2, 3, 4, 3, 3, 3, 4, 3, 3];[62.010689, 35.956011, 31.711451, 24.625796, 17.939410, 12.772710, 8.329778, 6.821091, 2.888972, 1.916143];[-0.024046395856, -1.862882999794, -0.628883956154, -0.047703812741, 0.028955173300, -0.007535120347, 0.002405643876, -0.000562157896, 0.000114881069, -0.000045560509]
Thulium;Tm;Lanthanide;Likely without hybridisation;69;0;69;1s^2 2s^2 2p^6 3s^2 3p^6 4s^2 3d^10 4p^6 5s^2 4d^10 5p^6 6s^2 4f^13;No special;2P;-12940,174228351;0,2136;4;3;3;1;6;[2, 2, 3, 4, 3, 3, 3, 4, 3, 3];[62.010689, 35.956011, 31.711451, 24.625796, 17.939410, 12.772710, 8.329778, 6.821091, 2.888972, 1.916143];[-0.008172232629, -0.931188222657, -0.656703790959, -0.267463949147, 2.723081090522, 0.549623367057, -0.010087243710, 0.004642028012, -0.000581998763, 0.000215800046]