Element name;Symbol;clasificacion;Possible hybridization;Z;Q;N;Complete electronic configuration;Special configuration;Config;Energy;Ionization;Valence_n;Valence_l;n;l;mz;N_list;A_list;C_list
Lanthanum;La;Lanthanide;Likely without hybridisation;57;0;57;1s^2 2s^2 2p^6 3s^2 3p^6 4s^2 3d^10 4p^6 5s^2 4d^10 5p^6 6s^2 4f^1;No special;2S;-8221,066556283;0,2063;5;2;3;2;10;[3, 3, 4, 4, 4, 4, 4, 4, 4];[34.153392, 19.107963, 15.073064, 10.165703, 8.440305, 5.562649, 3.651979, 2.027158, 1.145554];[0.022670684774, 1.402471090968, 1.578364880121, 0.526409499383, -0.096937091850, 0.012862880611, -0.003027564632, 0.000528100369, -0.000148627050]
Lanthanum;La;Lanthanide;Likely without hybridisation;57;0;57;1s^2 2s^2 2p^6 3s^2 3p^6 4s^2 3d^10 4p^6 5s^2 4d^10 5p^6 6s^2 4f^1;No special;2S;-8221,066556283;0,2063;5;2;4;2;10;[3, 3, 4, 4, 4, 4, 4, 4, 4];[34.153392, 19.107963, 15.073064, 10.165703, 8.440305, 5.562649, 3.651979, 2.027158, 1.145554];[-0.008232989888, -0.647556356544, -0.723823536697, -0.461877847855, 1.555060474904, 2.049431990629, 0.341433648791, -0.002946294096, 0.001383812704]
Lanthanum;La;Lanthanide;Likely without hybridisation;57;0;57;1s^2 2s^2 2p^6 3s^2 3p^6 4s^2 3d^10 4p^6 5s^2 4d^10 5p^6 6s^2 4f^1;No special;2S;-8221,066556283;0,2063;5;2;5;2;1;[3, 3, 4, 4, 4, 4, 4, 4, 4];[34.153392, 19.107963, 15.073064, 10.165703, 8.440305, 5.562649, 3.651979, 2.027158, 1.145554];[0.000893000000, 0.053221400000, 0.067034100000, 0.001702000000, -0.090533900000, -0.272626300000, 0.102002400000, 0.637439900000, 0.428817500000]
Cerium;Ce;Lanthanide;Likely without hybridisation;58;0;58;1s^2 2s^2 2p^6 3s^2 3p^6 4s^2 3d^10 4p^6 5s^2 4d^10 5p^6 6s^2 4f^2;No special;1S;-8566,872534154;0,2059;5;2;1;0;2;[1, 1, 2, 2, 3, 3, 3, 3, 3, 3, 3, 3, 3];[76.035150, 57.131650, 47.312853, 28.060473, 25.534699, 14.844127, 12.885759, 6.492214, 5.307661, 2.782600, 2.081217, 0.887910, 0.637379];[0.053181783856, 1.351462361026, 0.013292758958, 0.002316623237, -0.001388899140, 0.001332047754, -0.001168423245, 0.000424122647, -0.000330077445, 0.000095742258, -0.000055437172, 0.000012869343, -0.000006929646]
Cerium;Ce;Lanthanide;Likely without hybridisation;58;0;58;1s^2 2s^2 2p^6 3s^2 3p^6 4s^2 3d^10 4p^6 5s^2 4d^10 5p^6 6s^2 4f^2;No special;1S;-8566,872534154;0,2059;5;2;2;0;2;[1, 1, 2, 2, 3, 3, 3, 3, 3, 3, 3, 3, 3];[76.035150, 57.131650, 47.312853, 28.060473, 25.534699, 14.844127, 12.885759, 6.492214, 5.307661, 2.782600, 2.081217, 0.887910, 0.637379];[0.015243807989, -0.491620232261, -0.342130221965, 1.414890546405, 0.363411731915, 0.036874770111, -0.021997950541, 0.003065166475, -0.002392142241, 0.000646295598, -0.000354401919, 0.000079761645, -0.000042709250]
Cerium;Ce;Lanthanide;Likely without hybridisation;58;0;58;1s^2 2s^2 2p^6 3s^2 3p^6 4s^2 3d^10 4p^6 5s^2 4d^10 5p^6 6s^2 4f^2;No special;1S;-8566,872534154;0,2059;5;2;3;0;2;[1, 1, 2, 2, 3, 3, 3, 3, 3, 3, 3, 3, 3];[76.035150, 57.131650, 47.312853, 28.060473, 25.534699, 14.844127, 12.885759, 6.492214, 5.307661, 2.782600, 2.081217, 0.887910, 0.637379];[-0.006224943837, 0.221929847337, 0.169814946193, -0.692487207064, -0.538997942235, 0.688013766724, 1.095640885666, 0.066495756017, -0.034941823014, 0.005967698391, -0.003250428452, 0.000667367380, -0.000353694812]
Cerium;Ce;Lanthanide;Likely without hybridisation;58;0;58;1s^2 2s^2 2p^6 3s^2 3p^6 4s^2 3d^10 4p^6 5s^2 4d^10 5p^6 6s^2 4f^2;No special;1S;-8566,872534154;0,2059;5;2;4;0;2;[1, 1, 2, 2, 3, 3, 3, 3, 3, 3, 3, 3, 3];[76.035150, 57.131650, 47.312853, 28.060473, 25.534699, 14.844127, 12.885759, 6.492214, 5.307661, 2.782600, 2.081217, 0.887910, 0.637379];[0.001224284681, -0.102207194052, -0.085686351216, 0.339589021614, 0.278580555640, 0.306705445019, -1.869721709897, 1.609401055510, 0.385778792196, 0.012727497797, -0.002789536252, 0.000447598592, -0.000219768788]
Cerium;Ce;Lanthanide;Likely without hybridisation;58;0;58;1s^2 2s^2 2p^6 3s^2 3p^6 4s^2 3d^10 4p^6 5s^2 4d^10 5p^6 6s^2 4f^2;No special;1S;-8566,872534154;0,2059;5;2;5;0;2;[1, 1, 2, 2, 3, 3, 3, 3, 3, 3, 3, 3, 3];[76.035150, 57.131650, 47.312853, 28.060473, 25.534699, 14.844127, 12.885759, 6.492214, 5.307661, 2.782600, 2.081217, 0.887910, 0.637379];[-0.000966190706, 0.041660185963, 0.033306285029, -0.134328933801, -0.117843446304, -0.184530262574, 0.891096672758, -0.562202075524, -0.899950073923, 1.354966216548, 0.549703963166, -0.001189212185, 0.000752644458]
Cerium;Ce;Lanthanide;Likely without hybridisation;58;0;58;1s^2 2s^2 2p^6 3s^2 3p^6 4s^2 3d^10 4p^6 5s^2 4d^10 5p^6 6s^2 4f^2;No special;1S;-8566,872534154;0,2059;5;2;6;0;2;[1, 1, 2, 2, 3, 3, 3, 3, 3, 3, 3, 3, 3];[76.035150, 57.131650, 47.312853, 28.060473, 25.534699, 14.844127, 12.885759, 6.492214, 5.307661, 2.782600, 2.081217, 0.887910, 0.637379];[0.000108187338, -0.011308475909, -0.009619339230, 0.037969512829, 0.031654059324, 0.061201930389, -0.262060702754, 0.159169170760, 0.283142525750, -0.417242498375, -0.356022607473, 0.906504529520, 0.684461403676]
Cerium;Ce;Lanthanide;Likely without hybridisation;58;0;58;1s^2 2s^2 2p^6 3s^2 3p^6 4s^2 3d^10 4p^6 5s^2 4d^10 5p^6 6s^2 4f^2;No special;1S;-8566,872534154;0,2059;5;2;2;1;6;[2, 2, 3, 4, 3, 3, 3, 4, 3, 3];[48.894058, 28.719833, 24.767523, 19.481959, 15.389248, 10.857138, 6.613655, 5.604644, 2.429195, 1.653439];[0.045871349464, 2.001752901577, 0.471357515745, 0.023220427915, -0.014439252136, 0.002315012756, -0.001063078548, 0.000221923771, -0.000044825662, 0.000018616122]
Cerium;Ce;Lanthanide;Likely without hybridisation;58;0;58;1s^2 2s^2 2p^6 3s^2 3p^6 4s^2 3d^10 4p^6 5s^2 4d^10 5p^6 6s^2 4f^2;No special;1S;-8566,872534154;0,2059;5;2;3;1;6;[2, 2, 3, 4, 3, 3, 3, 4, 3, 3];[48.894058, 28.719833, 24.767523, 19.481959, 15.389248, 10.857138, 6.613655, 5.604644, 2.429195, 1.653439];[-0.016189412557, -0.972827098795, -0.825002597359, -0.958695747520, 3.313421100828, 0.858145173375, -0.000719415137, 0.003377111508, -0.000723334321, 0.000254257035]
Cerium;Ce;Lanthanide;Likely without hybridisation;58;0;58;1s^2 2s^2 2p^6 3s^2 3p^6 4s^2 3d^10 4p^6 5s^2 4d^10 5p^6 6s^2 4f^2;No special;1S;-8566,872534154;0,2059;5;2;4;1;6;[2, 2, 3, 4, 3, 3, 3, 4, 3, 3];[48.894058, 28.719833, 24.767523, 19.481959, 15.389248, 10.857138, 6.613655, 5.604644, 2.429195, 1.653439];[0.008097523192, 0.447591096566, 0.563013992634, 0.918535138442, -2.335111554091, -1.303225298005, 2.713272598745, 0.771630420404, 0.025698331738, -0.006181532315]
Cerium;Ce;Lanthanide;Likely without hybridisation;58;0;58;1s^2 2s^2 2p^6 3s^2 3p^6 4s^2 3d^10 4p^6 5s^2 4d^10 5p^6 6s^2 4f^2;No special;1S;-8566,872534154;0,2059;5;2;5;1;6;[2, 2, 3, 4, 3, 3, 3, 4, 3, 3];[48.894058, 28.719833, 24.767523, 19.481959, 15.389248, 10.857138, 6.613655, 5.604644, 2.429195, 1.653439];[-0.003677908849, -0.162968471771, -0.260309234557, -0.488436827925, 1.119719814333, 0.481648067103, -1.279265369137, -0.837303934847, 2.291577997637, 0.774527921821]
Cerium;Ce;Lanthanide;Likely without hybridisation;58;0;58;1s^2 2s^2 2p^6 3s^2 3p^6 4s^2 3d^10 4p^6 5s^2 4d^10 5p^6 6s^2 4f^2;No special;1S;-8566,872534154;0,2059;5;2;3;2;10;[3, 3, 4, 4, 4, 4, 4, 4, 4];[34.797518, 19.516555, 15.424922, 10.345200, 8.740820, 5.744808, 3.775249, 2.115986, 1.206276];[0.022254845261, 1.406447971353, 1.582473943712, 0.536595828182, -0.118882982584, 0.013860895440, -0.003057606270, 0.000595773111, -0.000135977939]
Cerium;Ce;Lanthanide;Likely without hybridisation;58;0;58;1s^2 2s^2 2p^6 3s^2 3p^6 4s^2 3d^10 4p^6 5s^2 4d^10 5p^6 6s^2 4f^2;No special;1S;-8566,872534154;0,2059;5;2;4;2;10;[3, 3, 4, 4, 4, 4, 4, 4, 4];[34.797518, 19.516555, 15.424922, 10.345200, 8.740820, 5.744808, 3.775249, 2.115986, 1.206276];[-0.008089106255, -0.655022494100, -0.734679952132, -0.519367107034, 1.609128465882, 2.054104255872, 0.350031881749, -0.002373289384, 0.001330686439]
Cerium;Ce;Lanthanide;Likely without hybridisation;58;0;58;1s^2 2s^2 2p^6 3s^2 3p^6 4s^2 3d^10 4p^6 5s^2 4d^10 5p^6 6s^2 4f^2;No special;1S;-8566,872534154;0,2059;5;2;5;2;1;[3, 3, 4, 4, 4, 4, 4, 4, 4];[34.797518, 19.516555, 15.424922, 10.345200, 8.740820, 5.744808, 3.775249, 2.115986, 1.206276];[0.000905100000, 0.055946500000, 0.070305400000, 0.004915900000, -0.097577100000, -0.283708000000, 0.105376700000, 0.645978500000, 0.417073700000]
Cerium;Ce;Lanthanide;Likely without hybridisation;58;0;58;1s^2 2s^2 2p^6 3s^2 3p^6 4s^2 3d^10 4p^6 5s^2 4d^10 5p^6 6s^2 4f^2;No special;1S;-8566,872534154;0,2059;5;2;4;3;1;[4, 4, 4, 4, 4, 4];[17.373634, 10.034791, 6.709780, 4.338091, 2.673664, 1.640385];[0.017700600000, 0.136571000000, 0.309170700000, 0.415854900000, 0.267259400000, 0.060161900000]
Praseodymium;Pr;Lanthanide;Likely without hybridisation;59;0;59;1s^2 2s^2 2p^6 3s^2 3p^6 4s^2 3d^10 4p^6 5s^2 4d^10 5p^6 6s^2 4f^3;No special;2P;-8921,180897012;0,2007;4;3;1;0;2;[1, 1, 2, 2, 3, 3, 3, 3, 3, 3, 3, 3, 3];[77.213125, 58.122933, 48.167912, 28.433887, 25.933524, 15.251111, 13.207237, 6.750698, 5.502002, 2.702642, 1.995310, 0.841438, 0.611222];[0.053244999202, 1.351565315774, 0.013059272299, 0.002315209023, -0.001417324832, 0.001338835979, -0.001158382329, 0.000386504567, -0.000280721392, 0.000070993521, -0.000042992092, 0.000011596551, -0.000006505382]
Praseodymium;Pr;Lanthanide;Likely without hybridisation;59;0;59;1s^2 2s^2 2p^6 3s^2 3p^6 4s^2 3d^10 4p^6 5s^2 4d^10 5p^6 6s^2 4f^3;No special;2P;-8921,180897012;0,2007;4;3;2;0;2;[1, 1, 2, 2, 3, 3, 3, 3, 3, 3, 3, 3, 3];[77.213125, 58.122933, 48.167912, 28.433887, 25.933524, 15.251111, 13.207237, 6.750698, 5.502002, 2.702642, 1.995310, 0.841438, 0.611222];[0.015412523667, -0.492388150225, -0.342005912592, 1.430495968802, 0.346429289773, 0.034918205647, -0.020319986150, 0.002593667673, -0.001911592472, 0.000449719913, -0.000257386868, 0.000067316566, -0.000037759502]
Praseodymium;Pr;Lanthanide;Likely without hybridisation;59;0;59;1s^2 2s^2 2p^6 3s^2 3p^6 4s^2 3d^10 4p^6 5s^2 4d^10 5p^6 6s^2 4f^3;No special;2P;-8921,180897012;0,2007;4;3;3;0;2;[1, 1, 2, 2, 3, 3, 3, 3, 3, 3, 3, 3, 3];[77.213125, 58.122933, 48.167912, 28.433887, 25.933524, 15.251111, 13.207237, 6.750698, 5.502002, 2.702642, 1.995310, 0.841438, 0.611222];[-0.006211225966, 0.222816559241, 0.170603087411, -0.703032431913, -0.539380204161, 0.654682167272, 1.136772580021, 0.063646681375, -0.030229097738, 0.004347151069, -0.002503440848, 0.000604152034, -0.000335310036]
Praseodymium;Pr;Lanthanide;Likely without hybridisation;59;0;59;1s^2 2s^2 2p^6 3s^2 3p^6 4s^2 3d^10 4p^6 5s^2 4d^10 5p^6 6s^2 4f^3;No special;2P;-8921,180897012;0,2007;4;3;4;0;2;[1, 1, 2, 2, 3, 3, 3, 3, 3, 3, 3, 3, 3];[77.213125, 58.122933, 48.167912, 28.433887, 25.933524, 15.251111, 13.207237, 6.750698, 5.502002, 2.702642, 1.995310, 0.841438, 0.611222];[0.001163190655, -0.102450580206, -0.086084310913, 0.344623763318, 0.278179484674, 0.321684936493, -1.889102799663, 1.437061455265, 0.561770881809, 0.011495859206, -0.002697188106, 0.000476307128, -0.000246638845]
Praseodymium;Pr;Lanthanide;Likely without hybridisation;59;0;59;1s^2 2s^2 2p^6 3s^2 3p^6 4s^2 3d^10 4p^6 5s^2 4d^10 5p^6 6s^2 4f^3;No special;2P;-8921,180897012;0,2007;4;3;5;0;2;[1, 1, 2, 2, 3, 3, 3, 3, 3, 3, 3, 3, 3];[77.213125, 58.122933, 48.167912, 28.433887, 25.933524, 15.251111, 13.207237, 6.750698, 5.502002, 2.702642, 1.995310, 0.841438, 0.611222];[-0.000953179941, 0.040384423908, 0.032226250131, -0.131476182203, -0.113910376966, -0.181334847030, 0.864043050153, -0.493920592041, -0.849326036716, 1.351464906611, 0.473131369832, -0.003845812362, 0.001879348403]
Praseodymium;Pr;Lanthanide;Likely without hybridisation;59;0;59;1s^2 2s^2 2p^6 3s^2 3p^6 4s^2 3d^10 4p^6 5s^2 4d^10 5p^6 6s^2 4f^3;No special;2P;-8921,180897012;0,2007;4;3;6;0;2;[1, 1, 2, 2, 3, 3, 3, 3, 3, 3, 3, 3, 3];[77.213125, 58.122933, 48.167912, 28.433887, 25.933524, 15.251111, 13.207237, 6.750698, 5.502002, 2.702642, 1.995310, 0.841438, 0.611222];[0.000074387633, -0.010425723803, -0.008957063019, 0.035620786945, 0.028975114573, 0.057988978597, -0.243228893536, 0.137780463421, 0.244542980778, -0.387673131263, -0.315549370953, 0.950910128272, 0.626280092035]
Praseodymium;Pr;Lanthanide;Likely without hybridisation;59;0;59;1s^2 2s^2 2p^6 3s^2 3p^6 4s^2 3d^10 4p^6 5s^2 4d^10 5p^6 6s^2 4f^3;No special;2P;-8921,180897012;0,2007;4;3;2;1;6;[2, 2, 3, 4, 3, 3, 3, 4, 3, 3];[49.831272, 29.252859, 25.247558, 19.914715, 15.733819, 11.166918, 6.703596, 5.617816, 2.408498, 1.640987];[0.044704657500, 2.003982427141, 0.469599027058, 0.021204252907, -0.012346408100, 0.001927503479, -0.000903371817, 0.000174158721, -0.000038456989, 0.000015676734]
Praseodymium;Pr;Lanthanide;Likely without hybridisation;59;0;59;1s^2 2s^2 2p^6 3s^2 3p^6 4s^2 3d^10 4p^6 5s^2 4d^10 5p^6 6s^2 4f^3;No special;2P;-8921,180897012;0,2007;4;3;3;1;6;[2, 2, 3, 4, 3, 3, 3, 4, 3, 3];[49.831272, 29.252859, 25.247558, 19.914715, 15.733819, 11.166918, 6.703596, 5.617816, 2.408498, 1.640987];[-0.015670855578, -0.977877946645, -0.826515157275, -0.932187124575, 3.274628041874, 0.870867333201, 0.003692360838, 0.002341712194, -0.000490142898, 0.000184446578]
Praseodymium;Pr;Lanthanide;Likely without hybridisation;59;0;59;1s^2 2s^2 2p^6 3s^2 3p^6 4s^2 3d^10 4p^6 5s^2 4d^10 5p^6 6s^2 4f^3;No special;2P;-8921,180897012;0,2007;4;3;4;1;6;[2, 2, 3, 4, 3, 3, 3, 4, 3, 3];[49.831272, 29.252859, 25.247558, 19.914715, 15.733819, 11.166918, 6.703596, 5.617816, 2.408498, 1.640987];[0.008097033294, 0.448448907874, 0.586641035846, 0.967740733344, -2.426973788119, -1.243219657879, 2.726101066426, 0.724683010096, 0.023994221724, -0.005886123852]
Praseodymium;Pr;Lanthanide;Likely without hybridisation;59;0;59;1s^2 2s^2 2p^6 3s^2 3p^6 4s^2 3d^10 4p^6 5s^2 4d^10 5p^6 6s^2 4f^3;No special;2P;-8921,180897012;0,2007;4;3;5;1;6;[2, 2, 3, 4, 3, 3, 3, 4, 3, 3];[49.831272, 29.252859, 25.247558, 19.914715, 15.733819, 11.166918, 6.703596, 5.617816, 2.408498, 1.640987];[-0.003359720131, -0.156340152527, -0.246240590220, -0.450512113084, 1.043443193641, 0.466930307983, -1.255874211788, -0.704003927790, 2.108151387535, 0.884635915045]
Praseodymium;Pr;Lanthanide;Likely without hybridisation;59;0;59;1s^2 2s^2 2p^6 3s^2 3p^6 4s^2 3d^10 4p^6 5s^2 4d^10 5p^6 6s^2 4f^3;No special;2P;-8921,180897012;0,2007;4;3;3;2;10;[3, 3, 4, 4, 4, 4, 4];[35.619597, 20.021927, 15.934469, 11.161212, 9.030128, 5.920706, 3.876835];[0.020977917542, 1.390882924482, 1.543251581438, 0.505639027256, -0.027269268947, 0.006584178316, -0.000743135250]
Praseodymium;Pr;Lanthanide;Likely without hybridisation;59;0;59;1s^2 2s^2 2p^6 3s^2 3p^6 4s^2 3d^10 4p^6 5s^2 4d^10 5p^6 6s^2 4f^3;No special;2P;-8921,180897012;0,2007;4;3;4;2;10;[3, 3, 4, 4, 4, 4, 4];[35.619597, 20.021927, 15.934469, 11.161212, 9.030128, 5.920706, 3.876835];[-0.007395934992, -0.646987146565, -0.711762609701, -0.450932572418, 1.468029534052, 2.052804875981, 0.405256317667]
Praseodymium;Pr;Lanthanide;Likely without hybridisation;59;0;59;1s^2 2s^2 2p^6 3s^2 3p^6 4s^2 3d^10 4p^6 5s^2 4d^10 5p^6 6s^2 4f^3;No special;2P;-8921,180897012;0,2007;4;3;4;3;3;[4, 4, 4, 4, 4, 4];[17.604838, 10.118322, 6.763135, 4.400819, 2.713060, 1.655041];[0.032096460310, 0.256413494373, 0.526160662272, 0.692885448138, 0.472449939935, 0.129115207835]
Neodymium;Nd;Lanthanide;Likely without hybridisation;60;0;60;1s^2 2s^2 2p^6 3s^2 3p^6 4s^2 3d^10 4p^6 5s^2 4d^10 5p^6 6s^2 4f^4;No special;3P;-9283,882809548;0,2026;4;3;1;0;2;[1, 1, 2, 2, 3, 3, 3, 3, 3, 3, 3, 3, 3];[78.361307, 59.111063, 49.001140, 28.814173, 26.316115, 15.655808, 13.516398, 6.921522, 5.627842, 2.762145, 2.037392, 0.850786, 0.615797];[0.053517942420, 1.351494039410, 0.012787460452, 0.002312804860, -0.001446740474, 0.001351422480, -0.001153008317, 0.000380423448, -0.000273933167, 0.000069013622, -0.000041577879, 0.000011030866, -0.000006222540]
Neodymium;Nd;Lanthanide;Likely without hybridisation;60;0;60;1s^2 2s^2 2p^6 3s^2 3p^6 4s^2 3d^10 4p^6 5s^2 4d^10 5p^6 6s^2 4f^4;No special;3P;-9283,882809548;0,2026;4;3;2;0;2;[1, 1, 2, 2, 3, 3, 3, 3, 3, 3, 3, 3, 3];[78.361307, 59.111063, 49.001140, 28.814173, 26.316115, 15.655808, 13.516398, 6.921522, 5.627842, 2.762145, 2.037392, 0.850786, 0.615797];[0.015734257252, -0.493372160022, -0.342378982130, 1.446241115499, 0.330133024051, 0.032723911884, -0.018543309651, 0.002289328915, -0.001688429572, 0.000398242539, -0.000225849906, 0.000058124177, -0.000032668333]
Neodymium;Nd;Lanthanide;Likely without hybridisation;60;0;60;1s^2 2s^2 2p^6 3s^2 3p^6 4s^2 3d^10 4p^6 5s^2 4d^10 5p^6 6s^2 4f^4;No special;3P;-9283,882809548;0,2026;4;3;3;0;2;[1, 1, 2, 2, 3, 3, 3, 3, 3, 3, 3, 3, 3];[78.361307, 59.111063, 49.001140, 28.814173, 26.316115, 15.655808, 13.516398, 6.921522, 5.627842, 2.762145, 2.037392, 0.850786, 0.615797];[-0.006225933787, 0.223708220892, 0.171773490556, -0.714001920831, -0.540064259261, 0.631020394475, 1.169299491956, 0.063202901159, -0.029525950755, 0.004237973782, -0.002424951995, 0.000575443499, -0.000320319372]
Neodymium;Nd;Lanthanide;Likely without hybridisation;60;0;60;1s^2 2s^2 2p^6 3s^2 3p^6 4s^2 3d^10 4p^6 5s^2 4d^10 5p^6 6s^2 4f^4;No special;3P;-9283,882809548;0,2026;4;3;4;0;2;[1, 1, 2, 2, 3, 3, 3, 3, 3, 3, 3, 3, 3];[78.361307, 59.111063, 49.001140, 28.814173, 26.316115, 15.655808, 13.516398, 6.921522, 5.627842, 2.762145, 2.037392, 0.850786, 0.615797];[0.001145512986, -0.103145383329, -0.086953486568, 0.351140035149, 0.279295723439, 0.328099667791, -1.907119597605, 1.428342404389, 0.574822517354, 0.011359670440, -0.002614315191, 0.000457498087, -0.000237587878]
Neodymium;Nd;Lanthanide;Likely without hybridisation;60;0;60;1s^2 2s^2 2p^6 3s^2 3p^6 4s^2 3d^10 4p^6 5s^2 4d^10 5p^6 6s^2 4f^4;No special;3P;-9283,882809548;0,2026;4;3;5;0;2;[1, 1, 2, 2, 3, 3, 3, 3, 3, 3, 3, 3, 3];[78.361307, 59.111063, 49.001140, 28.814173, 26.316115, 15.655808, 13.516398, 6.921522, 5.627842, 2.762145, 2.037392, 0.850786, 0.615797];[-0.000941017704, 0.040458670121, 0.032431169676, -0.133402482496, -0.113844474614, -0.183294805606, 0.868217384325, -0.496122098294, -0.838983468670, 1.325094773420, 0.493621910137, -0.003563535334, 0.001764655683]
Neodymium;Nd;Lanthanide;Likely without hybridisation;60;0;60;1s^2 2s^2 2p^6 3s^2 3p^6 4s^2 3d^10 4p^6 5s^2 4d^10 5p^6 6s^2 4f^4;No special;3P;-9283,882809548;0,2026;4;3;6;0;2;[1, 1, 2, 2, 3, 3, 3, 3, 3, 3, 3, 3, 3];[78.361307, 59.111063, 49.001140, 28.814173, 26.316115, 15.655808, 13.516398, 6.921522, 5.627842, 2.762145, 2.037392, 0.850786, 0.615797];[0.000063922453, -0.010325173219, -0.008925526056, 0.035772249218, 0.028577296298, 0.057871740293, -0.241664066230, 0.137413899266, 0.237814294070, -0.373368078237, -0.316758806392, 0.948703955115, 0.624907314930]
Neodymium;Nd;Lanthanide;Likely without hybridisation;60;0;60;1s^2 2s^2 2p^6 3s^2 3p^6 4s^2 3d^10 4p^6 5s^2 4d^10 5p^6 6s^2 4f^4;No special;3P;-9283,882809548;0,2026;4;3;2;1;6;[2, 2, 3, 4, 3, 3, 3, 4, 3, 3];[51.237254, 30.065452, 26.130120, 20.429427, 15.899519, 11.386007, 6.861663, 5.735242, 2.462338, 1.673724];[0.040318846115, 1.968338432200, 0.510331836940, 0.034097387117, -0.023743393975, 0.004072766595, -0.001303863390, 0.000303981677, -0.000067360968, 0.000027434285]
Neodymium;Nd;Lanthanide;Likely without hybridisation;60;0;60;1s^2 2s^2 2p^6 3s^2 3p^6 4s^2 3d^10 4p^6 5s^2 4d^10 5p^6 6s^2 4f^4;No special;3P;-9283,882809548;0,2026;4;3;3;1;6;[2, 2, 3, 4, 3, 3, 3, 4, 3, 3];[51.237254, 30.065452, 26.130120, 20.429427, 15.899519, 11.386007, 6.861663, 5.735242, 2.462338, 1.673724];[-0.014181565815, -0.962390067950, -0.759533125412, -0.751582081707, 3.044264309320, 0.842240391526, 0.004109508941, 0.002204050871, -0.000436988970, 0.000162891068]
Neodymium;Nd;Lanthanide;Likely without hybridisation;60;0;60;1s^2 2s^2 2p^6 3s^2 3p^6 4s^2 3d^10 4p^6 5s^2 4d^10 5p^6 6s^2 4f^4;No special;3P;-9283,882809548;0,2026;4;3;4;1;6;[2, 2, 3, 4, 3, 3, 3, 4, 3, 3];[51.237254, 30.065452, 26.130120, 20.429427, 15.899519, 11.386007, 6.861663, 5.735242, 2.462338, 1.673724];[0.007542713765, 0.442545147696, 0.535555702515, 0.847010037953, -2.293277208672, -1.214002389176, 2.742339958675, 0.716066195079, 0.023259129853, -0.005587041154]