Element name;Symbol;clasificacion;Possible hybridization;Z;Q;N;Complete electronic configuration;Special configuration;Config;Energy;Ionization;Valence_n;Valence_l;n;l;mz;N_list;A_list;C_list
Europium;Eu;Lanthanide;Likely without hybridisation;63;0;63;1s^2 2s^2 2p^6 3s^2 3p^6 4s^2 3d^10 4p^6 5s^2 4d^10 5p^6 6s^2 4f^7;Half orbital;4S;-10423,542874688;0,2085;4;3;5;1;6;[2, 2, 3, 4, 3, 3, 3, 4, 3, 3];[55.791864, 32.553763, 28.575313, 21.951895, 16.334643, 11.814935, 7.399224, 6.128648, 2.600679, 1.754749];[-0.002291007756, -0.144568639670, -0.175031228958, -0.264768775583, 0.855333893997, 0.408969991792, -1.249286554074, -0.656796626620, 2.000286147119, 0.955991265895]
Europium;Eu;Lanthanide;Likely without hybridisation;63;0;63;1s^2 2s^2 2p^6 3s^2 3p^6 4s^2 3d^10 4p^6 5s^2 4d^10 5p^6 6s^2 4f^7;Half orbital;4S;-10423,542874688;0,2085;4;3;3;2;10;[3, 3, 4, 4, 4, 4, 4];[39.027658, 21.857710, 17.561048, 12.522999, 9.746916, 6.446731, 4.199686];[0.016686074302, 1.371406140146, 1.530164811569, 0.511095221131, -0.002740113593, 0.005824282994, -0.000205231820]
Europium;Eu;Lanthanide;Likely without hybridisation;63;0;63;1s^2 2s^2 2p^6 3s^2 3p^6 4s^2 3d^10 4p^6 5s^2 4d^10 5p^6 6s^2 4f^7;Half orbital;4S;-10423,542874688;0,2085;4;3;4;2;10;[3, 3, 4, 4, 4, 4, 4];[39.027658, 21.857710, 17.561048, 12.522999, 9.746916, 6.446731, 4.199686];[-0.005808155378, -0.651643284192, -0.739263989828, -0.358958359128, 1.492643122220, 1.989174789814, 0.363891196050]
Europium;Eu;Lanthanide;Likely without hybridisation;63;0;63;1s^2 2s^2 2p^6 3s^2 3p^6 4s^2 3d^10 4p^6 5s^2 4d^10 5p^6 6s^2 4f^7;Half orbital;4S;-10423,542874688;0,2085;4;3;4;3;7;[4, 4, 4, 4, 4, 4];[19.096807, 11.001211, 7.210563, 4.694780, 2.936420, 1.834357];[0.054378126696, 0.488420772805, 0.921346647285, 0.996877555714, 0.597610400262, 0.145827197888]
Gadolinium;Gd;Lanthanide;Likely without hybridisation;64;0;64;1s^2 2s^2 2p^6 3s^2 3p^6 4s^2 3d^10 4p^6 5s^2 4d^10 5p^6 6s^2 4f^8;No special;2D;-10820,661019091;0,2265;5;2;1;0;2;[1, 1, 2, 2, 3, 3, 3, 3, 3, 3, 3, 3, 3];[82.305311, 62.993249, 52.253869, 30.386501, 27.824867, 17.377886, 14.723820, 7.512262, 6.078866, 3.063994, 2.257096, 0.960339, 0.672792];[0.059494691777, 1.347059207100, 0.010698525599, 0.002563544925, -0.001718410900, 0.001483792870, -0.001168281824, 0.000397394011, -0.000289772359, 0.000077357482, -0.000045537677, 0.000011172287, -0.000005939697]
Gadolinium;Gd;Lanthanide;Likely without hybridisation;64;0;64;1s^2 2s^2 2p^6 3s^2 3p^6 4s^2 3d^10 4p^6 5s^2 4d^10 5p^6 6s^2 4f^8;No special;2D;-10820,661019091;0,2265;5;2;2;0;2;[1, 1, 2, 2, 3, 3, 3, 3, 3, 3, 3, 3, 3];[82.305311, 62.993249, 52.253869, 30.386501, 27.824867, 17.377886, 14.723820, 7.512262, 6.078866, 3.063994, 2.257096, 0.960339, 0.672792];[0.018024858959, -0.499173688319, -0.344114929278, 1.503452983743, 0.272737449465, 0.024596567962, -0.012013319948, 0.001357503599, -0.001066034183, 0.000277892965, -0.000151745115, 0.000036062446, -0.000018950462]
Gadolinium;Gd;Lanthanide;Likely without hybridisation;64;0;64;1s^2 2s^2 2p^6 3s^2 3p^6 4s^2 3d^10 4p^6 5s^2 4d^10 5p^6 6s^2 4f^8;No special;2D;-10820,661019091;0,2265;5;2;3;0;2;[1, 1, 2, 2, 3, 3, 3, 3, 3, 3, 3, 3, 3];[82.305311, 62.993249, 52.253869, 30.386501, 27.824867, 17.377886, 14.723820, 7.512262, 6.078866, 3.063994, 2.257096, 0.960339, 0.672792];[-0.006721191377, 0.227871665620, 0.176284831820, -0.754330907568, -0.548546995051, 0.557857470039, 1.281454688469, 0.062635235835, -0.029399944327, 0.004529018933, -0.002511219023, 0.000545886435, -0.000283691241]
Gadolinium;Gd;Lanthanide;Likely without hybridisation;64;0;64;1s^2 2s^2 2p^6 3s^2 3p^6 4s^2 3d^10 4p^6 5s^2 4d^10 5p^6 6s^2 4f^8;No special;2D;-10820,661019091;0,2265;5;2;4;0;2;[1, 1, 2, 2, 3, 3, 3, 3, 3, 3, 3, 3, 3];[82.305311, 62.993249, 52.253869, 30.386501, 27.824867, 17.377886, 14.723820, 7.512262, 6.078866, 3.063994, 2.257096, 0.960339, 0.672792];[0.001153715424, -0.106055693419, -0.090507829514, 0.375936290066, 0.285664351374, 0.308301385024, -1.928388803897, 1.494998532225, 0.518715432745, 0.010756225513, -0.002200516303, 0.000369675425, -0.000176635274]
Gadolinium;Gd;Lanthanide;Likely without hybridisation;64;0;64;1s^2 2s^2 2p^6 3s^2 3p^6 4s^2 3d^10 4p^6 5s^2 4d^10 5p^6 6s^2 4f^8;No special;2D;-10820,661019091;0,2265;5;2;5;0;2;[1, 1, 2, 2, 3, 3, 3, 3, 3, 3, 3, 3, 3];[82.305311, 62.993249, 52.253869, 30.386501, 27.824867, 17.377886, 14.723820, 7.512262, 6.078866, 3.063994, 2.257096, 0.960339, 0.672792];[-0.000983444111, 0.041932704917, 0.034105174270, -0.144142161710, -0.117445769450, -0.174075547393, 0.883591724225, -0.538623034220, -0.835904725745, 1.306228174548, 0.535446144873, -0.001356089385, 0.000804263253]
Gadolinium;Gd;Lanthanide;Likely without hybridisation;64;0;64;1s^2 2s^2 2p^6 3s^2 3p^6 4s^2 3d^10 4p^6 5s^2 4d^10 5p^6 6s^2 4f^8;No special;2D;-10820,661019091;0,2265;5;2;6;0;2;[1, 1, 2, 2, 3, 3, 3, 3, 3, 3, 3, 3, 3];[82.305311, 62.993249, 52.253869, 30.386501, 27.824867, 17.377886, 14.723820, 7.512262, 6.078866, 3.063994, 2.257096, 0.960339, 0.672792];[0.000101823376, -0.010807985729, -0.009319525955, 0.038616374113, 0.029844714492, 0.053365914462, -0.244090998124, 0.144936101204, 0.245472826196, -0.377882813614, -0.324231793698, 0.863835443602, 0.716642681816]
Gadolinium;Gd;Lanthanide;Likely without hybridisation;64;0;64;1s^2 2s^2 2p^6 3s^2 3p^6 4s^2 3d^10 4p^6 5s^2 4d^10 5p^6 6s^2 4f^8;No special;2D;-10820,661019091;0,2265;5;2;2;1;6;[2, 2, 3, 4, 3, 3, 3, 4, 3, 3];[57.230537, 33.299220, 29.261658, 22.463074, 16.519189, 11.855231, 7.661230, 6.362660, 2.703895, 1.822405];[-0.026365817693, -1.844593639680, -0.647710734317, -0.056998891468, 0.038409713810, -0.009898633000, 0.003012872384, -0.000741950443, 0.000147949180, -0.000060012499]
Gadolinium;Gd;Lanthanide;Likely without hybridisation;64;0;64;1s^2 2s^2 2p^6 3s^2 3p^6 4s^2 3d^10 4p^6 5s^2 4d^10 5p^6 6s^2 4f^8;No special;2D;-10820,661019091;0,2265;5;2;3;1;6;[2, 2, 3, 4, 3, 3, 3, 4, 3, 3];[57.230537, 33.299220, 29.261658, 22.463074, 16.519189, 11.855231, 7.661230, 6.362660, 2.703895, 1.822405];[-0.009212285974, -0.909338039305, -0.660243058688, -0.341760647280, 2.707042811482, 0.628025409999, -0.007170636273, 0.004239576847, -0.000616291619, 0.000216534893]
Gadolinium;Gd;Lanthanide;Likely without hybridisation;64;0;64;1s^2 2s^2 2p^6 3s^2 3p^6 4s^2 3d^10 4p^6 5s^2 4d^10 5p^6 6s^2 4f^8;No special;2D;-10820,661019091;0,2265;5;2;4;1;6;[2, 2, 3, 4, 3, 3, 3, 4, 3, 3];[57.230537, 33.299220, 29.261658, 22.463074, 16.519189, 11.855231, 7.661230, 6.362660, 2.703895, 1.822405];[0.005317107385, 0.424064727383, 0.444834440810, 0.546428987483, -2.136940240481, -1.096753643454, 2.779315496241, 0.800834706812, 0.022911547258, -0.005327640191]
Gadolinium;Gd;Lanthanide;Likely without hybridisation;64;0;64;1s^2 2s^2 2p^6 3s^2 3p^6 4s^2 3d^10 4p^6 5s^2 4d^10 5p^6 6s^2 4f^8;No special;2D;-10820,661019091;0,2265;5;2;5;1;6;[2, 2, 3, 4, 3, 3, 3, 4, 3, 3];[57.230537, 33.299220, 29.261658, 22.463074, 16.519189, 11.855231, 7.661230, 6.362660, 2.703895, 1.822405];[-0.002181270616, -0.148876802230, -0.177836874510, -0.259405127893, 0.898245525005, 0.410377958496, -1.276449190780, -0.744550086553, 2.139077665231, 0.857304263546]
Gadolinium;Gd;Lanthanide;Likely without hybridisation;64;0;64;1s^2 2s^2 2p^6 3s^2 3p^6 4s^2 3d^10 4p^6 5s^2 4d^10 5p^6 6s^2 4f^8;No special;2D;-10820,661019091;0,2265;5;2;3;2;10;[3, 3, 4, 4, 4, 4, 4, 4, 4];[39.152619, 21.988128, 17.542793, 11.762997, 9.278723, 6.234138, 3.901196, 2.198174, 1.221245];[0.018439873492, 1.426640695352, 1.597544410357, 0.444545404000, -0.074266407077, 0.015332935691, -0.002810316157, 0.000805115892, -0.000164122211]
Gadolinium;Gd;Lanthanide;Likely without hybridisation;64;0;64;1s^2 2s^2 2p^6 3s^2 3p^6 4s^2 3d^10 4p^6 5s^2 4d^10 5p^6 6s^2 4f^8;No special;2D;-10820,661019091;0,2265;5;2;4;2;10;[3, 3, 4, 4, 4, 4, 4, 4, 4];[39.152619, 21.988128, 17.542793, 11.762997, 9.278723, 6.234138, 3.901196, 2.198174, 1.221245];[-0.006970924874, -0.683741351126, -0.803546770104, -0.102480248361, 1.685857022345, 1.795104861127, 0.192936252147, -0.005587112170, 0.001848667520]
Gadolinium;Gd;Lanthanide;Likely without hybridisation;64;0;64;1s^2 2s^2 2p^6 3s^2 3p^6 4s^2 3d^10 4p^6 5s^2 4d^10 5p^6 6s^2 4f^8;No special;2D;-10820,661019091;0,2265;5;2;5;2;1;[3, 3, 4, 4, 4, 4, 4, 4, 4];[39.152619, 21.988128, 17.542793, 11.762997, 9.278723, 6.234138, 3.901196, 2.198174, 1.221245];[0.000713200000, 0.052586200000, 0.067900400000, -0.015578000000, -0.115779000000, -0.222743900000, 0.173617800000, 0.615407800000, 0.404016600000]
Gadolinium;Gd;Lanthanide;Likely without hybridisation;64;0;64;1s^2 2s^2 2p^6 3s^2 3p^6 4s^2 3d^10 4p^6 5s^2 4d^10 5p^6 6s^2 4f^8;No special;2D;-10820,661019091;0,2265;5;2;4;3;7;[4, 4, 4, 4, 4, 4];[19.447696, 11.191024, 7.273950, 4.772530, 3.057018, 1.968402];[0.057825805230, 0.536977717467, 0.990268998089, 0.969648541521, 0.508910529258, 0.089846275047]
Terbium;Tb;Lanthanide;Likely without hybridisation;65;0;65;1s^2 2s^2 2p^6 3s^2 3p^6 4s^2 3d^10 4p^6 5s^2 4d^10 5p^6 6s^2 4f^9;No special;2P;-11226,568217318;0,2199;4;3;1;0;2;[1, 1, 2, 2, 3, 3, 3, 3, 3, 3, 3, 3, 3];[82.955621, 63.922571, 53.013606, 30.826568, 28.227966, 17.761599, 15.016489, 7.765122, 6.248189, 3.045055, 2.229203, 0.897151, 0.638579];[0.063930089773, 1.343425526773, 0.009611278213, 0.002760120610, -0.001856720986, 0.001590141730, -0.001233335648, 0.000393575634, -0.000272518953, 0.000067033723, -0.000039315137, 0.000010040916, -0.000005656854]
Terbium;Tb;Lanthanide;Likely without hybridisation;65;0;65;1s^2 2s^2 2p^6 3s^2 3p^6 4s^2 3d^10 4p^6 5s^2 4d^10 5p^6 6s^2 4f^9;No special;2P;-11226,568217318;0,2199;4;3;2;0;2;[1, 1, 2, 2, 3, 3, 3, 3, 3, 3, 3, 3, 3];[82.955621, 63.922571, 53.013606, 30.826568, 28.227966, 17.761599, 15.016489, 7.765122, 6.248189, 3.045055, 2.229203, 0.897151, 0.638579];[0.019269791158, -0.501901847702, -0.344816662048, 1.513582995491, 0.264089674952, 0.023054368072, -0.010962135007, 0.001141128923, -0.000871579818, 0.000209303607, -0.000113137085, 0.000027860007, -0.000015697771]
Terbium;Tb;Lanthanide;Likely without hybridisation;65;0;65;1s^2 2s^2 2p^6 3s^2 3p^6 4s^2 3d^10 4p^6 5s^2 4d^10 5p^6 6s^2 4f^9;No special;2P;-11226,568217318;0,2199;4;3;3;0;2;[1, 1, 2, 2, 3, 3, 3, 3, 3, 3, 3, 3, 3];[82.955621, 63.922571, 53.013606, 30.826568, 28.227966, 17.761599, 15.016489, 7.765122, 6.248189, 3.045055, 2.229203, 0.897151, 0.638579];[-0.007154930676, 0.229471565423, 0.177393009567, -0.761806016195, -0.552581322080, 0.557741504527, 1.289477239166, 0.060597212670, -0.026136646532, 0.003679218004, -0.002052872407, 0.000464144891, -0.000260215295]
Terbium;Tb;Lanthanide;Likely without hybridisation;65;0;65;1s^2 2s^2 2p^6 3s^2 3p^6 4s^2 3d^10 4p^6 5s^2 4d^10 5p^6 6s^2 4f^9;No special;2P;-11226,568217318;0,2199;4;3;4;0;2;[1, 1, 2, 2, 3, 3, 3, 3, 3, 3, 3, 3, 3];[82.955621, 63.922571, 53.013606, 30.826568, 28.227966, 17.761599, 15.016489, 7.765122, 6.248189, 3.045055, 2.229203, 0.897151, 0.638579];[0.001282408858, -0.106629722704, -0.090966741815, 0.379195486642, 0.287704071595, 0.303813802548, -1.930455535597, 1.377361419679, 0.640409924001, 0.010753397086, -0.002255812053, 0.000382827611, -0.000200111219]
Terbium;Tb;Lanthanide;Likely without hybridisation;65;0;65;1s^2 2s^2 2p^6 3s^2 3p^6 4s^2 3d^10 4p^6 5s^2 4d^10 5p^6 6s^2 4f^9;No special;2P;-11226,568217318;0,2199;4;3;5;0;2;[1, 1, 2, 2, 3, 3, 3, 3, 3, 3, 3, 3, 3];[82.955621, 63.922571, 53.013606, 30.826568, 28.227966, 17.761599, 15.016489, 7.765122, 6.248189, 3.045055, 2.229203, 0.897151, 0.638579];[-0.001063488599, 0.040951099283, 0.033151004380, -0.140808294658, -0.114900326459, -0.165010579879, 0.854652106413, -0.490242363987, -0.801549094253, 1.219325175405, 0.572229415366, -0.002136028165, 0.001147917149]
Terbium;Tb;Lanthanide;Likely without hybridisation;65;0;65;1s^2 2s^2 2p^6 3s^2 3p^6 4s^2 3d^10 4p^6 5s^2 4d^10 5p^6 6s^2 4f^9;No special;2P;-11226,568217318;0,2199;4;3;6;0;2;[1, 1, 2, 2, 3, 3, 3, 3, 3, 3, 3, 3, 3];[82.955621, 63.922571, 53.013606, 30.826568, 28.227966, 17.761599, 15.016489, 7.765122, 6.248189, 3.045055, 2.229203, 0.897151, 0.638579];[0.000050628846, -0.009926789258, -0.008738708445, 0.036087618842, 0.027248642656, 0.049849331017, -0.226022864230, 0.130467423669, 0.213457576728, -0.320514391928, -0.315293539720, 0.930851630210, 0.629100458142]
Terbium;Tb;Lanthanide;Likely without hybridisation;65;0;65;1s^2 2s^2 2p^6 3s^2 3p^6 4s^2 3d^10 4p^6 5s^2 4d^10 5p^6 6s^2 4f^9;No special;2P;-11226,568217318;0,2199;4;3;2;1;6;[2, 2, 3, 4, 3, 3, 3, 4, 3, 3];[58.126052, 33.821695, 29.746277, 22.877678, 16.799271, 12.072159, 7.731577, 6.372903, 2.702424, 1.813396];[-0.026049833517, -1.849306457945, -0.642707651517, -0.054876653554, 0.036366104517, -0.009263725258, 0.002729466420, -0.000671895036, 0.000140845660, -0.000056828162]
Terbium;Tb;Lanthanide;Likely without hybridisation;65;0;65;1s^2 2s^2 2p^6 3s^2 3p^6 4s^2 3d^10 4p^6 5s^2 4d^10 5p^6 6s^2 4f^9;No special;2P;-11226,568217318;0,2199;4;3;3;1;6;[2, 2, 3, 4, 3, 3, 3, 4, 3, 3];[58.126052, 33.821695, 29.746277, 22.877678, 16.799271, 12.072159, 7.731577, 6.372903, 2.702424, 1.813396];[-0.009036167661, -0.914584111487, -0.657913348994, -0.321566074045, 2.702744691830, 0.611904828104, -0.005230885346, 0.003858681192, -0.000523455958, 0.000194489486]
Terbium;Tb;Lanthanide;Likely without hybridisation;65;0;65;1s^2 2s^2 2p^6 3s^2 3p^6 4s^2 3d^10 4p^6 5s^2 4d^10 5p^6 6s^2 4f^9;No special;2P;-11226,568217318;0,2199;4;3;4;1;6;[2, 2, 3, 4, 3, 3, 3, 4, 3, 3];[58.126052, 33.821695, 29.746277, 22.877678, 16.799271, 12.072159, 7.731577, 6.372903, 2.702424, 1.813396];[0.005322986160, 0.425680900715, 0.452120692999, 0.563997217817, -2.210810972348, -1.007554739623, 2.795507358287, 0.746078813102, 0.021695130652, -0.004937436475]
Terbium;Tb;Lanthanide;Likely without hybridisation;65;0;65;1s^2 2s^2 2p^6 3s^2 3p^6 4s^2 3d^10 4p^6 5s^2 4d^10 5p^6 6s^2 4f^9;No special;2P;-11226,568217318;0,2199;4;3;5;1;6;[2, 2, 3, 4, 3, 3, 3, 4, 3, 3];[58.126052, 33.821695, 29.746277, 22.877678, 16.799271, 12.072159, 7.731577, 6.372903, 2.702424, 1.813396];[-0.002070063782, -0.143295394902, -0.169900772692, -0.242268987551, 0.860577761638, 0.383998178711, -1.255474944960, -0.635562489938, 1.955052154886, 0.990388225608]
Terbium;Tb;Lanthanide;Likely without hybridisation;65;0;65;1s^2 2s^2 2p^6 3s^2 3p^6 4s^2 3d^10 4p^6 5s^2 4d^10 5p^6 6s^2 4f^9;No special;2P;-11226,568217318;0,2199;4;3;3;2;10;[3, 3, 4, 4, 4, 4, 4];[40.387469, 22.687984, 18.290794, 13.044187, 10.138627, 6.712861, 4.356704];[0.015948314924, 1.376148607952, 1.531499608969, 0.502377454077, -0.003835526574, 0.006213243147, -0.000065142920]
Terbium;Tb;Lanthanide;Likely without hybridisation;65;0;65;1s^2 2s^2 2p^6 3s^2 3p^6 4s^2 3d^10 4p^6 5s^2 4d^10 5p^6 6s^2 4f^9;No special;2P;-11226,568217318;0,2199;4;3;4;2;10;[3, 3, 4, 4, 4, 4, 4];[40.387469, 22.687984, 18.290794, 13.044187, 10.138627, 6.712861, 4.356704];[-0.005563711315, -0.659878171447, -0.754922640118, -0.334185075938, 1.521945103247, 1.968135524086, 0.346839878678]
Terbium;Tb;Lanthanide;Likely without hybridisation;65;0;65;1s^2 2s^2 2p^6 3s^2 3p^6 4s^2 3d^10 4p^6 5s^2 4d^10 5p^6 6s^2 4f^9;No special;2P;-11226,568217318;0,2199;4;3;4;3;9;[4, 4, 4, 4, 4, 4];[19.867646, 11.479325, 7.441491, 4.767002, 2.941008, 1.819700];[0.062787900000, 0.593037000000, 1.100901600000, 1.113010800000, 0.633614400000, 0.149169000000]
Dysprosium;Dy;Lanthanide;Likely without hybridisation;66;0;66;1s^2 2s^2 2p^6 3s^2 3p^6 4s^2 3d^10 4p^6 5s^2 4d^10 5p^6 6s^2 4f^10;No special;3P;-11641,452434124;0,25;4;3;1;0;2;[1, 1, 2, 2, 3, 3, 3, 3, 3, 3, 3, 3, 3];[84.058350, 64.905516, 53.852289, 31.254498, 28.652782, 18.158666, 15.320686, 7.950956, 6.399325, 3.084138, 2.248827, 0.909579, 0.645319];[0.064505674692, 1.343051467285, 0.009328718343, 0.002783455133, -0.001896177544, 0.001613051989, -0.001236729760, 0.000391312893, -0.000267710627, 0.000063639610, -0.000037618081, 0.000009758074, -0.000005515433]
Dysprosium;Dy;Lanthanide;Likely without hybridisation;66;0;66;1s^2 2s^2 2p^6 3s^2 3p^6 4s^2 3d^10 4p^6 5s^2 4d^10 5p^6 6s^2 4f^10;No special;3P;-11641,452434124;0,25;4;3;2;0;2;[1, 1, 2, 2, 3, 3, 3, 3, 3, 3, 3, 3, 3];[84.058350, 64.905516, 53.852289, 31.254498, 28.652782, 18.158666, 15.320686, 7.950956, 6.399325, 3.084138, 2.248827, 0.909579, 0.645319];[0.019520531223, -0.502706818062, -0.345149567920, 1.522180141158, 0.255155380772, 0.022527997785, -0.010532638348, 0.001092338556, -0.000830426204, 0.000193888679, -0.000105358910, 0.000026587215, -0.000014990664]
Dysprosium;Dy;Lanthanide;Likely without hybridisation;66;0;66;1s^2 2s^2 2p^6 3s^2 3p^6 4s^2 3d^10 4p^6 5s^2 4d^10 5p^6 6s^2 4f^10;No special;3P;-11641,452434124;0,25;4;3;3;0;2;[1, 1, 2, 2, 3, 3, 3, 3, 3, 3, 3, 3, 3];[84.058350, 64.905516, 53.852289, 31.254498, 28.652782, 18.158666, 15.320686, 7.950956, 6.399325, 3.084138, 2.248827, 0.909579, 0.645319];[-0.007243884709, 0.230310335487, 0.177962796211, -0.767762118034, -0.555753120258, 0.546281566345, 1.307572808803, 0.061089358990, -0.025930029930, 0.003523795933, -0.001981313201, 0.000460326515, -0.000256821183]
Dysprosium;Dy;Lanthanide;Likely without hybridisation;66;0;66;1s^2 2s^2 2p^6 3s^2 3p^6 4s^2 3d^10 4p^6 5s^2 4d^10 5p^6 6s^2 4f^10;No special;3P;-11641,452434124;0,25;4;3;4;0;2;[1, 1, 2, 2, 3, 3, 3, 3, 3, 3, 3, 3, 3];[84.058350, 64.905516, 53.852289, 31.254498, 28.652782, 18.158666, 15.320686, 7.950956, 6.399325, 3.084138, 2.248827, 0.909579, 0.645319];[0.001302066427, -0.107171083656, -0.091388884564, 0.382736111717, 0.289667282863, 0.307554821685, -1.941548626781, 1.341039607071, 0.678831702327, 0.011172004300, -0.002490288662, 0.000434870670, -0.000227122698]
Dysprosium;Dy;Lanthanide;Likely without hybridisation;66;0;66;1s^2 2s^2 2p^6 3s^2 3p^6 4s^2 3d^10 4p^6 5s^2 4d^10 5p^6 6s^2 4f^10;No special;3P;-11641,452434124;0,25;4;3;5;0;2;[1, 1, 2, 2, 3, 3, 3, 3, 3, 3, 3, 3, 3];[84.058350, 64.905516, 53.852289, 31.254498, 28.652782, 18.158666, 15.320686, 7.950956, 6.399325, 3.084138, 2.248827, 0.909579, 0.645319];[-0.001094884140, 0.041014173208, 0.033119184575, -0.141423194715, -0.115364188508, -0.164731131279, 0.854110462619, -0.470707973471, -0.809001858305, 1.226284803188, 0.557335908077, -0.002499905314, 0.001301076477]
Dysprosium;Dy;Lanthanide;Likely without hybridisation;66;0;66;1s^2 2s^2 2p^6 3s^2 3p^6 4s^2 3d^10 4p^6 5s^2 4d^10 5p^6 6s^2 4f^10;No special;3P;-11641,452434124;0,25;4;3;6;0;2;[1, 1, 2, 2, 3, 3, 3, 3, 3, 3, 3, 3, 3];[84.058350, 64.905516, 53.852289, 31.254498, 28.652782, 18.158666, 15.320686, 7.950956, 6.399325, 3.084138, 2.248827, 0.909579, 0.645319];[0.000061376869, -0.009865553811, -0.008645087507, 0.035917347529, 0.027156294510, 0.049037006747, -0.223541343692, 0.123756697472, 0.213861900385, -0.321453995419, -0.305824389970, 0.914257531112, 0.644845039154]
Dysprosium;Dy;Lanthanide;Likely without hybridisation;66;0;66;1s^2 2s^2 2p^6 3s^2 3p^6 4s^2 3d^10 4p^6 5s^2 4d^10 5p^6 6s^2 4f^10;No special;3P;-11641,452434124;0,25;4;3;2;1;6;[2, 2, 3, 4, 3, 3, 3, 4, 3, 3];[59.112075, 34.352966, 30.233389, 23.326779, 17.106021, 12.284446, 7.875620, 6.482252, 2.749806, 1.839803];[-0.025484981182, -1.853238623830, -0.638714248390, -0.052622878042, 0.033934251101, -0.008604322619, 0.002553348108, -0.000620455752, 0.000129333058, -0.000051929183]
Dysprosium;Dy;Lanthanide;Likely without hybridisation;66;0;66;1s^2 2s^2 2p^6 3s^2 3p^6 4s^2 3d^10 4p^6 5s^2 4d^10 5p^6 6s^2 4f^10;No special;3P;-11641,452434124;0,25;4;3;3;1;6;[2, 2, 3, 4, 3, 3, 3, 4, 3, 3];[59.112075, 34.352966, 30.233389, 23.326779, 17.106021, 12.284446, 7.875620, 6.482252, 2.749806, 1.839803];[-0.008824041849, -0.919027240931, -0.660096579201, -0.314298437978, 2.708114953142, 0.603669643589, -0.005450604576, 0.003875092773, -0.000509248918, 0.000188610710]