Element name;Symbol;clasificacion;Possible hybridization;Z;Q;N;Complete electronic configuration;Special configuration;Config;Energy;Ionization;Valence_n;Valence_l;n;l;mz;N_list;A_list;C_list
Chromium;Cr;Transition metal;sp3d;24;0;24;1s^2 2s^2 2p^6 3s^2 3p^6 4s^2 3d^4;No special;2D;-1043,356375551;0,2485;3;2;2;0;2;[1, 3, 1, 3, 2, 1, 2, 2, 1, 1, 2, 1];[64.134378, 35.194142, 25.454647, 17.708856, 10.162320, 8.462113, 7.730720, 3.367156, 2.316006, 1.537736, 0.699029, 0.666408];[0.001925734608, -0.011546770894, -0.200994536867, 0.084715917870, 1.732608613856, -0.974154425226, 0.472621687264, 0.012864676513, -0.012361216485, 0.002365696447, 0.000351856334, -0.000245648896]
Chromium;Cr;Transition metal;sp3d;24;0;24;1s^2 2s^2 2p^6 3s^2 3p^6 4s^2 3d^4;No special;2D;-1043,356375551;0,2485;3;2;3;0;2;[1, 3, 1, 3, 2, 1, 2, 2, 1, 1, 2, 1];[64.134378, 35.194142, 25.454647, 17.708856, 10.162320, 8.462113, 7.730720, 3.367156, 2.316006, 1.537736, 0.699029, 0.666408];[-0.000820668130, 0.005203598803, 0.072326275692, -0.036201887298, -0.309572338753, 0.217323046658, -1.201840546026, 1.056568569101, 0.979429866077, 0.005721908073, -0.000127562063, -0.000438689047]
Chromium;Cr;Transition metal;sp3d;24;0;24;1s^2 2s^2 2p^6 3s^2 3p^6 4s^2 3d^4;No special;2D;-1043,356375551;0,2485;3;2;4;0;1;[1, 3, 1, 3, 2, 1, 2, 2, 1, 1, 2, 1];[64.134378, 35.194142, 25.454647, 17.708856, 10.162320, 8.462113, 7.730720, 3.367156, 2.316006, 1.537736, 0.699029, 0.666408];[0.000143100000, -0.000911400000, -0.011178800000, 0.005224300000, 0.034514500000, -0.029302900000, 0.208783100000, -0.186206000000, 0.082155100000, -0.601691400000, 0.736581200000, 0.551370800000]
Chromium;Cr;Transition metal;sp3d;24;0;24;1s^2 2s^2 2p^6 3s^2 3p^6 4s^2 3d^4;No special;2D;-1043,356375551;0,2485;3;2;2;1;6;[2, 3, 2, 3, 2, 2, 3, 2, 2, 2];[54.119911, 32.347673, 16.361604, 12.870877, 9.705787, 7.719275, 3.078646, 2.646262, 1.486704, 0.666408];[0.000461483868, 0.006494087206, -0.444237990057, -0.325458803144, -0.954193340424, -0.817597299968, 0.021276022957, -0.033070316068, 0.000084262447, -0.000000734847]
Chromium;Cr;Transition metal;sp3d;24;0;24;1s^2 2s^2 2p^6 3s^2 3p^6 4s^2 3d^4;No special;2D;-1043,356375551;0,2485;3;2;3;1;6;[2, 3, 2, 3, 2, 2, 3, 2, 2, 2];[54.119911, 32.347673, 16.361604, 12.870877, 9.705787, 7.719275, 3.078646, 2.646262, 1.486704, 0.666408];[0.000169994588, 0.002514646170, -0.050913869049, 0.116026695289, -0.532031376673, -0.901724045388, -1.331621497747, 4.098894322616, 0.067850375977, 0.000573425549]
Chromium;Cr;Transition metal;sp3d;24;0;24;1s^2 2s^2 2p^6 3s^2 3p^6 4s^2 3d^4;No special;2D;-1043,356375551;0,2485;3;2;3;2;5;[3, 4, 3, 3, 3, 3, 3, 3];[21.010126, 16.248352, 7.319431, 4.807319, 3.023447, 1.852525, 1.147532, 0.666408];[0.003391220695, 0.014518565771, 0.151187487769, 0.563402818106, 0.820848256166, 0.737798679021, 0.372684331776, 0.006560623446]
Manganese;Mn;Transition metal;sp3d;25;0;25;1s^2 2s^2 2p^6 3s^2 3p^6 4s^2 3d^5;Half orbital;2P;-1149,866250992;0,2732;3;2;1;0;2;[1, 3, 1, 3, 2, 1, 2, 2, 1, 1, 2, 1];[65.615997, 36.493146, 26.490049, 18.586295, 10.770334, 8.946835, 8.222221, 3.543574, 2.463906, 1.753364, 0.743164, 0.704089];[0.002045377075, -0.015193461986, -1.162620161301, 0.101939342003, 0.281840600744, -0.596246438611, 0.026081492203, -0.002318744557, 0.003984829555, -0.001020072243, -0.000066609459, 0.000150896587]
Manganese;Mn;Transition metal;sp3d;25;0;25;1s^2 2s^2 2p^6 3s^2 3p^6 4s^2 3d^5;Half orbital;2P;-1149,866250992;0,2732;3;2;2;0;2;[1, 3, 1, 3, 2, 1, 2, 2, 1, 1, 2, 1];[65.615997, 36.493146, 26.490049, 18.586295, 10.770334, 8.946835, 8.222221, 3.543574, 2.463906, 1.753364, 0.743164, 0.704089];[0.002062913323, -0.011737972568, -0.195168259833, 0.071268019684, 1.703105290518, -0.997703909466, 0.533835355626, 0.017585179963, -0.019903641677, 0.003967010464, 0.000106207439, -0.000286378246]
Manganese;Mn;Transition metal;sp3d;25;0;25;1s^2 2s^2 2p^6 3s^2 3p^6 4s^2 3d^5;Half orbital;2P;-1149,866250992;0,2732;3;2;3;0;2;[1, 3, 1, 3, 2, 1, 2, 2, 1, 1, 2, 1];[65.615997, 36.493146, 26.490049, 18.586295, 10.770334, 8.946835, 8.222221, 3.543574, 2.463906, 1.753364, 0.743164, 0.704089];[-0.000905096680, 0.005422094798, 0.071832715159, -0.031784449814, -0.294005665808, 0.259117300067, -1.209089804747, 1.235344113847, 0.762546356995, 0.010067927772, 0.000821092394, -0.001810759045]
Manganese;Mn;Transition metal;sp3d;25;0;25;1s^2 2s^2 2p^6 3s^2 3p^6 4s^2 3d^5;Half orbital;2P;-1149,866250992;0,2732;3;2;4;0;2;[1, 3, 1, 3, 2, 1, 2, 2, 1, 1, 2, 1];[65.615997, 36.493146, 26.490049, 18.586295, 10.770334, 8.946835, 8.222221, 3.543574, 2.463906, 1.753364, 0.743164, 0.704089];[0.000216516096, -0.001302773534, -0.016161066905, 0.007246288872, 0.041158847255, -0.038041213457, 0.322255430244, -0.215137662440, 0.265419459965, -1.167294419967, 0.838746870741, 1.055595590170]
Manganese;Mn;Transition metal;sp3d;25;0;25;1s^2 2s^2 2p^6 3s^2 3p^6 4s^2 3d^5;Half orbital;2P;-1149,866250992;0,2732;3;2;2;1;6;[2, 3, 2, 3, 2, 2, 3, 2, 2, 2];[52.083296, 33.806616, 17.420626, 13.771396, 10.071962, 7.859711, 3.390377, 2.922745, 1.760084, 0.704089];[0.000800248299, 0.007344794994, -0.390819272798, -0.258890245149, -1.264130216966, -0.622739901032, 0.015192715181, -0.025736053881, 0.000329701319, -0.000012492398]
Manganese;Mn;Transition metal;sp3d;25;0;25;1s^2 2s^2 2p^6 3s^2 3p^6 4s^2 3d^5;Half orbital;2P;-1149,866250992;0,2732;3;2;3;1;6;[2, 3, 2, 3, 2, 2, 3, 2, 2, 2];[52.083296, 33.806616, 17.420626, 13.771396, 10.071962, 7.859711, 3.390377, 2.922745, 1.760084, 0.704089];[0.000386039583, 0.003391563498, -0.044040845779, 0.117460136687, -0.704377230027, -0.790296022142, -1.046708363468, 3.834231609939, 0.098607883830, 0.001388615735]
Manganese;Mn;Transition metal;sp3d;25;0;25;1s^2 2s^2 2p^6 3s^2 3p^6 4s^2 3d^5;Half orbital;2P;-1149,866250992;0,2732;3;2;3;2;5;[3, 4, 3, 3, 3, 3, 3, 3];[22.242214, 17.176523, 7.574462, 5.005562, 3.189753, 2.065915, 1.380034, 0.704089];[0.003616169133, 0.015827559965, 0.195999408073, 0.632388198493, 0.870943334280, 0.663426163662, 0.203520869928, 0.000659416447]
Iron;Fe;Transition metal;sp3d;26;0;26;1s^2 2s^2 2p^6 3s^2 3p^6 4s^2 3d^6;No special;3P;-1262,443664689;0,2904;3;2;1;0;2;[1, 3, 1, 3, 2, 1, 2, 2, 1, 1, 2, 1];[67.039851, 37.739652, 27.502599, 19.356262, 11.285074, 9.367472, 8.606144, 3.732769, 2.599956, 1.821430, 0.761362, 0.718583];[0.002147341873, -0.015072263884, -1.169581627562, 0.096784109304, 0.270558570629, -0.575246215738, 0.026140323487, -0.001932947097, 0.003129088928, -0.000698904343, -0.000040729351, 0.000092772410]
Iron;Fe;Transition metal;sp3d;26;0;26;1s^2 2s^2 2p^6 3s^2 3p^6 4s^2 3d^6;No special;3P;-1262,443664689;0,2904;3;2;2;0;2;[1, 3, 1, 3, 2, 1, 2, 2, 1, 1, 2, 1];[67.039851, 37.739652, 27.502599, 19.356262, 11.285074, 9.367472, 8.606144, 3.732769, 2.599956, 1.821430, 0.761362, 0.718583];[0.002213668489, -0.011914183578, -0.193293295492, 0.065794306090, 1.720554988821, -1.013911079734, 0.534015809276, 0.015867051906, -0.016763380462, 0.003118906590, 0.000086974134, -0.000228112648]
Iron;Fe;Transition metal;sp3d;26;0;26;1s^2 2s^2 2p^6 3s^2 3p^6 4s^2 3d^6;No special;3P;-1262,443664689;0,2904;3;2;3;0;2;[1, 3, 1, 3, 2, 1, 2, 2, 1, 1, 2, 1];[67.039851, 37.739652, 27.502599, 19.356262, 11.285074, 9.367472, 8.606144, 3.732769, 2.599956, 1.821430, 0.761362, 0.718583];[-0.001052599154, 0.005934322950, 0.071739518485, -0.026368577556, -0.314744259172, 0.258898379807, -1.224078205766, 1.194842310213, 0.823166621346, 0.010202136639, 0.000697348708, -0.001482802920]
Iron;Fe;Transition metal;sp3d;26;0;26;1s^2 2s^2 2p^6 3s^2 3p^6 4s^2 3d^6;No special;3P;-1262,443664689;0,2904;3;2;4;0;2;[1, 3, 1, 3, 2, 1, 2, 2, 1, 1, 2, 1];[67.039851, 37.739652, 27.502599, 19.356262, 11.285074, 9.367472, 8.606144, 3.732769, 2.599956, 1.821430, 0.761362, 0.718583];[0.000257952554, -0.001458054183, -0.015989805643, 0.005528019394, 0.046894473200, -0.039386837662, 0.317912238973, -0.218422173439, 0.224423954376, -1.115376377351, 0.779076957904, 1.106669912975]
Iron;Fe;Transition metal;sp3d;26;0;26;1s^2 2s^2 2p^6 3s^2 3p^6 4s^2 3d^6;No special;3P;-1262,443664689;0,2904;3;2;2;1;6;[2, 3, 2, 3, 2, 2, 3, 2, 2, 2];[53.958628, 35.552297, 18.139253, 14.420001, 10.398009, 8.220976, 3.526362, 3.043306, 1.742634, 0.718583];[0.000866874420, 0.007216441731, -0.418911000964, -0.312069157363, -1.231083415999, -0.576535176014, 0.016597252599, -0.027703484042, 0.000207961679, -0.000008818163]
Iron;Fe;Transition metal;sp3d;26;0;26;1s^2 2s^2 2p^6 3s^2 3p^6 4s^2 3d^6;No special;3P;-1262,443664689;0,2904;3;2;3;1;6;[2, 3, 2, 3, 2, 2, 3, 2, 2, 2];[53.958628, 35.552297, 18.139253, 14.420001, 10.398009, 8.220976, 3.526362, 3.043306, 1.742634, 0.718583];[0.000393143104, 0.003249003195, -0.046103561092, 0.110584908877, -0.772691784310, -0.724464025713, -1.171656835247, 3.980685131966, 0.070842427698, 0.001010904417]
Iron;Fe;Transition metal;sp3d;26;0;26;1s^2 2s^2 2p^6 3s^2 3p^6 4s^2 3d^6;No special;3P;-1262,443664689;0,2904;3;2;3;2;6;[3, 4, 3, 3, 3, 3, 3, 3];[23.292198, 18.020857, 7.891984, 5.208309, 3.309121, 2.122232, 1.404987, 0.718583];[0.003932410833, 0.017063390497, 0.240444852539, 0.721683854855, 0.944502179205, 0.701833679878, 0.218468275516, 0.000777712993]
Cobalt;Co;Transition metal;sp3d;27;0;27;1s^2 2s^2 2p^6 3s^2 3p^6 4s^2 3d^7;No special;1D;-1381,414552237;0,289;3;2;1;0;2;[1, 3, 1, 3, 2, 1, 2, 2, 1, 1, 2, 1];[67.880489, 38.904351, 28.510966, 20.112028, 11.806173, 9.803070, 8.992577, 3.918210, 2.729885, 1.879157, 0.777145, 0.731328];[0.002336139384, -0.015114124605, -1.177231108720, 0.091439937673, 0.257910834477, -0.551562098366, 0.025326867846, -0.001778656397, 0.002736220400, -0.000537259732, -0.000027152900, 0.000063356768]
Cobalt;Co;Transition metal;sp3d;27;0;27;1s^2 2s^2 2p^6 3s^2 3p^6 4s^2 3d^7;No special;1D;-1381,414552237;0,289;3;2;2;0;2;[1, 3, 1, 3, 2, 1, 2, 2, 1, 1, 2, 1];[67.880489, 38.904351, 28.510966, 20.112028, 11.806173, 9.803070, 8.992577, 3.918210, 2.729885, 1.879157, 0.777145, 0.731328];[0.002451539210, -0.012186419688, -0.191792390638, 0.060190060585, 1.732757813387, -1.026163260353, 0.536142362210, 0.014962520911, -0.015146651517, 0.002751918171, 0.000102954747, -0.000249043008]
Cobalt;Co;Transition metal;sp3d;27;0;27;1s^2 2s^2 2p^6 3s^2 3p^6 4s^2 3d^7;No special;1D;-1381,414552237;0,289;3;2;3;0;2;[1, 3, 1, 3, 2, 1, 2, 2, 1, 1, 2, 1];[67.880489, 38.904351, 28.510966, 20.112028, 11.806173, 9.803070, 8.992577, 3.918210, 2.729885, 1.879157, 0.777145, 0.731328];[-0.001239275345, 0.006425762163, 0.071640240693, -0.021207405160, -0.333058749069, 0.258084924166, -1.235605601935, 1.154816248021, 0.880629371076, 0.009339749209, 0.000601606449, -0.001233618490]
Cobalt;Co;Transition metal;sp3d;27;0;27;1s^2 2s^2 2p^6 3s^2 3p^6 4s^2 3d^7;No special;1D;-1381,414552237;0,289;3;2;4;0;2;[1, 3, 1, 3, 2, 1, 2, 2, 1, 1, 2, 1];[67.880489, 38.904351, 28.510966, 20.112028, 11.806173, 9.803070, 8.992577, 3.918210, 2.729885, 1.879157, 0.777145, 0.731328];[0.000307732871, -0.001598202747, -0.015777956451, 0.003914260298, 0.051831351325, -0.040493601195, 0.311939025150, -0.220325704894, 0.184976729795, -1.063514761855, 0.726014675094, 1.151302210161]
Cobalt;Co;Transition metal;sp3d;27;0;27;1s^2 2s^2 2p^6 3s^2 3p^6 4s^2 3d^7;No special;1D;-1381,414552237;0,289;3;2;2;1;6;[2, 3, 2, 3, 2, 2, 3, 2, 2, 2];[55.920505, 37.045603, 18.633841, 14.903522, 10.432654, 8.406347, 3.670304, 3.170172, 1.761172, 0.731328];[0.000876182481, 0.007055510255, -0.494521850344, -0.422895096030, -1.212223814673, -0.416801745346, 0.016559040559, -0.027747329908, 0.000144029997, -0.000007838367]
Cobalt;Co;Transition metal;sp3d;27;0;27;1s^2 2s^2 2p^6 3s^2 3p^6 4s^2 3d^7;No special;1D;-1381,414552237;0,289;3;2;3;1;6;[2, 3, 2, 3, 2, 2, 3, 2, 2, 2];[55.920505, 37.045603, 18.633841, 14.903522, 10.432654, 8.406347, 3.670304, 3.170172, 1.761172, 0.731328];[0.000374526982, 0.003041286465, -0.059738890694, 0.092030758922, -0.960484609879, -0.511325594929, -1.258432213926, 4.073122751134, 0.058256949400, 0.000809066462]
Cobalt;Co;Transition metal;sp3d;27;0;27;1s^2 2s^2 2p^6 3s^2 3p^6 4s^2 3d^7;No special;1D;-1381,414552237;0,289;3;2;3;2;7;[3, 4, 3, 3, 3, 3, 3, 3];[24.172555, 18.786883, 8.199042, 5.406704, 3.442626, 2.205849, 1.453653, 0.731328];[0.004343265352, 0.018375007430, 0.288386892906, 0.802431502584, 1.001809236157, 0.735072790805, 0.234647450576, 0.000979457135]
Nickel;Ni;Transition metal;sp3d;28;0;28;1s^2 2s^2 2p^6 3s^2 3p^6 4s^2 3d^8;No special;1S;-1506,870907385;0,2805;3;2;1;0;2;[1, 3, 1, 3, 2, 1, 2, 2, 1, 1, 2, 1];[69.226787, 40.178379, 29.523561, 20.825217, 12.335507, 10.337108, 9.378273, 4.099637, 2.864936, 1.935115, 0.792121, 0.743304];[0.002497218308, -0.015148065731, -1.184307126280, 0.087548446214, 0.240304441311, -0.521545981190, 0.020230749274, -0.001381403808, 0.002083843684, -0.000373069538, -0.000019233304, 0.000044264885]
Nickel;Ni;Transition metal;sp3d;28;0;28;1s^2 2s^2 2p^6 3s^2 3p^6 4s^2 3d^8;No special;1S;-1506,870907385;0,2805;3;2;2;0;2;[1, 3, 1, 3, 2, 1, 2, 2, 1, 1, 2, 1];[69.226787, 40.178379, 29.523561, 20.825217, 12.335507, 10.337108, 9.378273, 4.099637, 2.864936, 1.935115, 0.792121, 0.743304];[0.002626194585, -0.012323881247, -0.189920396145, 0.055638979920, 1.734219544525, -1.023834050616, 0.531197988753, 0.014588744267, -0.014230665393, 0.002403880213, 0.000097297893, -0.000229809704]
Nickel;Ni;Transition metal;sp3d;28;0;28;1s^2 2s^2 2p^6 3s^2 3p^6 4s^2 3d^8;No special;1S;-1506,870907385;0,2805;3;2;3;0;2;[1, 3, 1, 3, 2, 1, 2, 2, 1, 1, 2, 1];[69.226787, 40.178379, 29.523561, 20.825217, 12.335507, 10.337108, 9.378273, 4.099637, 2.864936, 1.935115, 0.792121, 0.743304];[-0.001380131016, 0.006741273209, 0.071091950095, -0.016928702027, -0.348025795463, 0.254030798147, -1.244388009578, 1.114951547597, 0.935019176157, 0.010959589423, 0.000608677517, -0.001231355749]
Nickel;Ni;Transition metal;sp3d;28;0;28;1s^2 2s^2 2p^6 3s^2 3p^6 4s^2 3d^8;No special;1S;-1506,870907385;0,2805;3;2;4;0;2;[1, 3, 1, 3, 2, 1, 2, 2, 1, 1, 2, 1];[69.226787, 40.178379, 29.523561, 20.825217, 12.335507, 10.337108, 9.378273, 4.099637, 2.864936, 1.935115, 0.792121, 0.743304];[0.000343653896, -0.001682065611, -0.015445192000, 0.002599324528, 0.055819433571, -0.040823254377, 0.306060563635, -0.219537987939, 0.147332203243, -1.014270997086, 0.679217358366, 1.188382041238]
Nickel;Ni;Transition metal;sp3d;28;0;28;1s^2 2s^2 2p^6 3s^2 3p^6 4s^2 3d^8;No special;1S;-1506,870907385;0,2805;3;2;2;1;6;[2, 3, 2, 3, 2, 2, 3, 2, 2, 2];[57.991635, 38.657440, 19.286668, 15.489265, 10.586878, 8.440193, 3.827276, 3.303890, 1.779584, 0.743304];[0.000886715287, 0.006852692504, -0.528881577813, -0.477613267599, -1.281914492294, -0.261633428712, 0.015592471907, -0.026460612946, 0.000112921477, -0.000010042908]
Nickel;Ni;Transition metal;sp3d;28;0;28;1s^2 2s^2 2p^6 3s^2 3p^6 4s^2 3d^8;No special;1S;-1506,870907385;0,2805;3;2;3;1;6;[2, 3, 2, 3, 2, 2, 3, 2, 2, 2];[57.991635, 38.657440, 19.286668, 15.489265, 10.586878, 8.440193, 3.827276, 3.303890, 1.779584, 0.743304];[0.000397797134, 0.003042756158, -0.070995520807, 0.071338694320, -1.132757223489, -0.316287178700, -1.326791103974, 4.147221775445, 0.049980123559, 0.000585672997]
Nickel;Ni;Transition metal;sp3d;28;0;28;1s^2 2s^2 2p^6 3s^2 3p^6 4s^2 3d^8;No special;1S;-1506,870907385;0,2805;3;2;3;2;8;[3, 4, 3, 3, 3, 3, 3, 3];[25.058793, 19.533825, 8.512016, 5.601915, 3.574636, 2.291306, 1.503687, 0.743304];[0.004735352692, 0.019632112673, 0.337360079619, 0.879534486936, 1.051530574707, 0.764082334345, 0.248796935174, 0.001143533087]
Copper;Cu;Transition metal;sp3d;29;0;29;1s^2 2s^2 2p^6 3s^2 3p^6 4s^2 3d^9;No special;2P;-1638,96374119;0,2838;4;0;1;0;2;[1, 3, 1, 3, 2, 1, 2, 2, 1, 1, 2, 1];[70.189946, 41.413051, 30.509673, 21.267318, 12.847734, 11.192606, 9.712223, 4.300548, 2.962479, 1.808143, 0.734806, 0.690642];[0.002857701345, -0.015842868854, -1.198134316543, 0.084674905676, 0.192039736590, -0.450899225524, 0.006570011947, 0.000176493853, -0.000196858528, 0.000033092597, 0.000003111270, -0.000006929646]
Copper;Cu;Transition metal;sp3d;29;0;29;1s^2 2s^2 2p^6 3s^2 3p^6 4s^2 3d^9;No special;2P;-1638,96374119;0,2838;4;0;2;0;2;[1, 3, 1, 3, 2, 1, 2, 2, 1, 1, 2, 1];[70.189946, 41.413051, 30.509673, 21.267318, 12.847734, 11.192606, 9.712223, 4.300548, 2.962479, 1.808143, 0.734806, 0.690642];[0.002973525436, -0.012899749009, -0.192085557109, 0.054565167562, 1.709532608316, -0.964345298536, 0.486618724576, 0.011821411168, -0.009106828235, 0.001441932148, 0.000110591501, -0.000245083210]
Copper;Cu;Transition metal;sp3d;29;0;29;1s^2 2s^2 2p^6 3s^2 3p^6 4s^2 3d^9;No special;2P;-1638,96374119;0,2838;4;0;3;0;2;[1, 3, 1, 3, 2, 1, 2, 2, 1, 1, 2, 1];[70.189946, 41.413051, 30.509673, 21.267318, 12.847734, 11.192606, 9.712223, 4.300548, 2.962479, 1.808143, 0.734806, 0.690642];[0.001545735424, -0.006992861802, -0.070662170593, 0.013601340357, 0.363546082204, -0.214481608768, 1.258549944192, -0.931392991162, -1.161222211194, -0.010678726609, -0.000440386103, 0.000202939646]
Copper;Cu;Transition metal;sp3d;29;0;29;1s^2 2s^2 2p^6 3s^2 3p^6 4s^2 3d^9;No special;2P;-1638,96374119;0,2838;4;0;4;0;1;[1, 3, 1, 3, 2, 1, 2, 2, 1, 1, 2, 1];[70.189946, 41.413051, 30.509673, 21.267318, 12.847734, 11.192606, 9.712223, 4.300548, 2.962479, 1.808143, 0.734806, 0.690642];[0.000248000000, -0.001128500000, -0.009039400000, 0.000044400000, 0.041159500000, -0.027386200000, 0.169373800000, -0.156365300000, 0.002482000000, -0.402875500000, 0.664338300000, 0.535954200000]
Copper;Cu;Transition metal;sp3d;29;0;29;1s^2 2s^2 2p^6 3s^2 3p^6 4s^2 3d^9;No special;2P;-1638,96374119;0,2838;4;0;2;1;6;[2, 3, 2, 3, 2, 2, 3, 2, 2, 2];[60.062765, 40.162787, 19.924473, 16.048602, 10.881331, 8.741628, 3.948760, 3.385906, 1.798822, 0.690642];[0.000877407226, 0.006641546489, -0.555663563814, -0.518153792536, -1.261957519564, -0.214938070899, 0.019053600913, -0.031225360394, 0.000047030203, -0.000020575714]
Copper;Cu;Transition metal;sp3d;29;0;29;1s^2 2s^2 2p^6 3s^2 3p^6 4s^2 3d^9;No special;2P;-1638,96374119;0,2838;4;0;3;1;6;[2, 3, 2, 3, 2, 2, 3, 2, 2, 2];[60.062765, 40.162787, 19.924473, 16.048602, 10.881331, 8.741628, 3.948760, 3.385906, 1.798822, 0.690642];[0.000378691114, 0.002865168152, -0.076186724419, 0.059511578046, -1.207977379255, -0.211128869400, -1.510145209180, 4.306750673719, 0.055010150745, 0.000215065199]
Copper;Cu;Transition metal;sp3d;29;0;29;1s^2 2s^2 2p^6 3s^2 3p^6 4s^2 3d^9;No special;2P;-1638,96374119;0,2838;4;0;3;2;10;[3, 4, 3, 3, 3, 3, 3, 3];[26.287704, 20.461389, 8.922963, 5.814383, 3.626597, 2.200138, 1.349920, 0.690642];[0.004798123894, 0.020145289834, 0.372575126732, 0.992127301001, 1.167847797338, 0.879647614451, 0.354468557306, 0.003707138101]
Zinc;Zn;Transition metal;sp3d;30;0;30;1s^2 2s^2 2p^6 3s^2 3p^6 4s^2 3d^10;Full orbital;1S;-1777,848115134;0,3452;3;2;1;0;2;[1, 3, 1, 3, 2, 1, 2, 2, 1, 1, 2, 1];[72.171558, 42.777264, 31.527672, 22.081772, 13.336452, 11.561129, 10.027114, 4.420748, 3.230588, 2.015129, 0.818486, 0.764862];[0.002795758791, -0.015218210723, -1.201315872794, 0.082156898428, 0.193303619251, -0.447930508414, 0.007373568093, -0.000174655375, 0.000307167186, -0.000036910974, -0.000003111270, 0.000006505382]
Zinc;Zn;Transition metal;sp3d;30;0;30;1s^2 2s^2 2p^6 3s^2 3p^6 4s^2 3d^10;Full orbital;1S;-1777,848115134;0,3452;3;2;2;0;2;[1, 3, 1, 3, 2, 1, 2, 2, 1, 1, 2, 1];[72.171558, 42.777264, 31.527672, 22.081772, 13.336452, 11.561129, 10.027114, 4.420748, 3.230588, 2.015129, 0.818486, 0.764862];[0.002933220350, -0.012448897726, -0.188822400736, 0.052612421476, 1.747636330013, -0.988879075416, 0.475023587578, 0.013674172356, -0.012933407292, 0.001340533036, 0.000064770981, -0.000146795368]