Element name;Symbol;clasificacion;Possible hybridization;Z;Q;N;Complete electronic configuration;Special configuration;Config;Energy;Ionization;Valence_n;Valence_l;n;l;mz;N_list;A_list;C_list
Curium;Cm;Actinide;Likely without hybridisation;96;0;96;1s^2 2s^2 2p^6 3s^2 3p^6 4s^2 3d^10 4p^6 5s^2 4d^10 5p^6 6s^2 4f^14 5d^10 6p^6 7s^2 5f^8;No special;1S;-28392,770961608;0,2213;6;2;5;0;2;[1, 1, 2, 2, 3, 3, 3, 4, 3, 3, 3, 3, 3, 3, 3];[109.612751, 92.936745, 76.950992, 44.998600, 40.035230, 28.287682, 22.155737, 12.809142, 12.807190, 6.672423, 5.474202, 2.789448, 2.064744, 0.896377, 0.641591];[-0.007352354889, 0.072510406298, 0.051173883440, -0.235312267435, -0.285586569628, 0.211551641110, 1.060024482784, -1.176906405287, -1.352533344957, 1.841019679963, 0.601373952724, 0.010339739619, -0.001832962198, 0.000291610837, -0.000139300036]
Curium;Cm;Actinide;Likely without hybridisation;96;0;96;1s^2 2s^2 2p^6 3s^2 3p^6 4s^2 3d^10 4p^6 5s^2 4d^10 5p^6 6s^2 4f^14 5d^10 6p^6 7s^2 5f^8;No special;1S;-28392,770961608;0,2213;6;2;6;0;2;[1, 1, 2, 2, 3, 3, 3, 4, 3, 3, 3, 3, 3, 3, 3];[109.612751, 92.936745, 76.950992, 44.998600, 40.035230, 28.287682, 22.155737, 12.809142, 12.807190, 6.672423, 5.474202, 2.789448, 2.064744, 0.896377, 0.641591];[0.002670742313, -0.029685615466, -0.021722037475, 0.098714652238, 0.118656477681, -0.078630839753, -0.463220844029, 0.661254017696, 0.593027405700, -0.731343431797, -1.128730088913, 1.498468729464, 0.462477533381, -0.003146766598, 0.001543614103]
Curium;Cm;Actinide;Likely without hybridisation;96;0;96;1s^2 2s^2 2p^6 3s^2 3p^6 4s^2 3d^10 4p^6 5s^2 4d^10 5p^6 6s^2 4f^14 5d^10 6p^6 7s^2 5f^8;No special;1S;-28392,770961608;0,2213;6;2;7;0;2;[1, 1, 2, 2, 3, 3, 3, 4, 3, 3, 3, 3, 3, 3, 3];[109.612751, 92.936745, 76.950992, 44.998600, 40.035230, 28.287682, 22.155737, 12.809142, 12.807190, 6.672423, 5.474202, 2.789448, 2.064744, 0.896377, 0.641591];[-0.000971140453, 0.008233127096, 0.005491956948, -0.025736141251, -0.033091324567, 0.025366607247, 0.116936652568, -0.195813565481, -0.149695919791, 0.211121861608, 0.329505113229, -0.431892053825, -0.347533931986, 0.881017431278, 0.714544554575]
Curium;Cm;Actinide;Likely without hybridisation;96;0;96;1s^2 2s^2 2p^6 3s^2 3p^6 4s^2 3d^10 4p^6 5s^2 4d^10 5p^6 6s^2 4f^14 5d^10 6p^6 7s^2 5f^8;No special;1S;-28392,770961608;0,2213;6;2;2;1;6;[2, 2, 3, 3, 4, 4, 3, 3, 3, 3, 3, 3];[92.375643, 52.048311, 46.755479, 28.969843, 28.937060, 16.155524, 15.030526, 11.614807, 6.659121, 5.292248, 2.433730, 1.651093];[-0.010602616352, -1.784958362403, -0.680928509668, -0.103461302807, 0.062685136957, 0.034549807873, -0.040981678040, -0.008146268038, 0.001668347464, -0.000846543655, 0.000092345763, -0.000037232244]
Curium;Cm;Actinide;Likely without hybridisation;96;0;96;1s^2 2s^2 2p^6 3s^2 3p^6 4s^2 3d^10 4p^6 5s^2 4d^10 5p^6 6s^2 4f^14 5d^10 6p^6 7s^2 5f^8;No special;1S;-28392,770961608;0,2213;6;2;3;1;6;[2, 2, 3, 3, 4, 4, 3, 3, 3, 3, 3, 3];[92.375643, 52.048311, 46.755479, 28.969843, 28.937060, 16.155524, 15.030526, 11.614807, 6.659121, 5.292248, 2.433730, 1.651093];[-0.003483909261, -0.928236832466, -0.613688301586, 1.357018542247, 1.039108821541, -0.730418245380, 1.222515590777, 0.047297687341, -0.008766478840, 0.003682072981, -0.000337539687, 0.000133007293]
Curium;Cm;Actinide;Likely without hybridisation;96;0;96;1s^2 2s^2 2p^6 3s^2 3p^6 4s^2 3d^10 4p^6 5s^2 4d^10 5p^6 6s^2 4f^14 5d^10 6p^6 7s^2 5f^8;No special;1S;-28392,770961608;0,2213;6;2;4;1;6;[2, 2, 3, 3, 4, 4, 3, 3, 3, 3, 3, 3];[92.375643, 52.048311, 46.755479, 28.969843, 28.937060, 16.155524, 15.030526, 11.614807, 6.659121, 5.292248, 2.433730, 1.651093];[0.001155669261, 0.488934074343, 0.335940904600, -0.756994229293, -0.978348983522, 2.473158672270, -2.233332560839, 2.339182116145, 0.057325898348, -0.013994179849, 0.000757382228, -0.000299572596]
Curium;Cm;Actinide;Likely without hybridisation;96;0;96;1s^2 2s^2 2p^6 3s^2 3p^6 4s^2 3d^10 4p^6 5s^2 4d^10 5p^6 6s^2 4f^14 5d^10 6p^6 7s^2 5f^8;No special;1S;-28392,770961608;0,2213;6;2;5;1;6;[2, 2, 3, 3, 4, 4, 3, 3, 3, 3, 3, 3];[92.375643, 52.048311, 46.755479, 28.969843, 28.937060, 16.155524, 15.030526, 11.614807, 6.659121, 5.292248, 2.433730, 1.651093];[-0.000296388259, -0.239987532804, -0.159456883276, 0.387959493523, 0.620879268624, -0.655538813637, 1.961119051081, -4.449653170466, 2.179726457615, 1.790594393352, 0.024676894516, -0.005623293603]
Curium;Cm;Actinide;Likely without hybridisation;96;0;96;1s^2 2s^2 2p^6 3s^2 3p^6 4s^2 3d^10 4p^6 5s^2 4d^10 5p^6 6s^2 4f^14 5d^10 6p^6 7s^2 5f^8;No special;1S;-28392,770961608;0,2213;6;2;6;1;6;[2, 2, 3, 3, 4, 4, 3, 3, 3, 3, 3, 3];[92.375643, 52.048311, 46.755479, 28.969843, 28.937060, 16.155524, 15.030526, 11.614807, 6.659121, 5.292248, 2.433730, 1.651093];[0.000217024791, 0.091373805773, 0.063172585415, -0.149498972624, -0.228601814582, 0.301557662030, -0.907472997815, 1.974190018247, -0.653662504494, -1.874163145008, 2.440335509716, 0.694695621818]
Curium;Cm;Actinide;Likely without hybridisation;96;0;96;1s^2 2s^2 2p^6 3s^2 3p^6 4s^2 3d^10 4p^6 5s^2 4d^10 5p^6 6s^2 4f^14 5d^10 6p^6 7s^2 5f^8;No special;1S;-28392,770961608;0,2213;6;2;3;2;10;[3, 3, 4, 4, 4, 4, 4, 4, 4, 4, 4];[63.281438, 35.762624, 29.732643, 20.338402, 15.629075, 12.194421, 8.106496, 5.645416, 3.705816, 2.098537, 1.201851];[0.006763479460, 1.384922663548, 1.574042679015, 0.513846402695, -0.135433078946, 0.051481564080, -0.011737109763, 0.004188436761, -0.001233288287, 0.000297886556, -0.000084749041]
Curium;Cm;Actinide;Likely without hybridisation;96;0;96;1s^2 2s^2 2p^6 3s^2 3p^6 4s^2 3d^10 4p^6 5s^2 4d^10 5p^6 6s^2 4f^14 5d^10 6p^6 7s^2 5f^8;No special;1S;-28392,770961608;0,2213;6;2;4;2;10;[3, 3, 4, 4, 4, 4, 4, 4, 4, 4, 4];[63.281438, 35.762624, 29.732643, 20.338402, 15.629075, 12.194421, 8.106496, 5.645416, 3.705816, 2.098537, 1.201851];[-0.002468790169, -0.785848766951, -1.021041270559, 0.040648865727, 1.839413114562, 1.601243010309, 0.130287420738, -0.017727728563, 0.004089141242, -0.000933504365, 0.000239068191]
Curium;Cm;Actinide;Likely without hybridisation;96;0;96;1s^2 2s^2 2p^6 3s^2 3p^6 4s^2 3d^10 4p^6 5s^2 4d^10 5p^6 6s^2 4f^14 5d^10 6p^6 7s^2 5f^8;No special;1S;-28392,770961608;0,2213;6;2;5;2;10;[3, 3, 4, 4, 4, 4, 4, 4, 4, 4, 4];[63.281438, 35.762624, 29.732643, 20.338402, 15.629075, 12.194421, 8.106496, 5.645416, 3.705816, 2.098537, 1.201851];[0.001371796049, 0.358522597266, 0.498989073564, -0.146284434737, -0.737004858668, -1.739901928696, 1.538191620954, 2.338803164933, 0.315171881506, -0.002861861282, 0.000887967567]
Curium;Cm;Actinide;Likely without hybridisation;96;0;96;1s^2 2s^2 2p^6 3s^2 3p^6 4s^2 3d^10 4p^6 5s^2 4d^10 5p^6 6s^2 4f^14 5d^10 6p^6 7s^2 5f^8;No special;1S;-28392,770961608;0,2213;6;2;6;2;1;[3, 3, 4, 4, 4, 4, 4, 4, 4, 4, 4];[63.281438, 35.762624, 29.732643, 20.338402, 15.629075, 12.194421, 8.106496, 5.645416, 3.705816, 2.098537, 1.201851];[-0.000044200000, -0.032210900000, -0.042733900000, 0.003751300000, 0.092759900000, 0.135640000000, -0.118531600000, -0.362408800000, 0.131544400000, 0.658002500000, 0.402358500000]
Curium;Cm;Actinide;Likely without hybridisation;96;0;96;1s^2 2s^2 2p^6 3s^2 3p^6 4s^2 3d^10 4p^6 5s^2 4d^10 5p^6 6s^2 4f^14 5d^10 6p^6 7s^2 5f^8;No special;1S;-28392,770961608;0,2213;6;2;4;3;14;[4, 4, 4, 5, 4, 4, 4, 4];[33.822758, 20.974594, 13.682058, 8.829274, 8.445016, 4.983619, 3.134988, 1.990129];[0.062715041957, 0.973181513858, 2.166218325775, -0.519920505516, 1.342306491704, 0.010499464793, -0.001641465096, 0.000346103308]
Curium;Cm;Actinide;Likely without hybridisation;96;0;96;1s^2 2s^2 2p^6 3s^2 3p^6 4s^2 3d^10 4p^6 5s^2 4d^10 5p^6 6s^2 4f^14 5d^10 6p^6 7s^2 5f^8;No special;1S;-28392,770961608;0,2213;6;2;5;3;7;[4, 4, 4, 5, 4, 4, 4, 4];[33.822758, 20.974594, 13.682058, 8.829274, 8.445016, 4.983619, 3.134988, 1.990129];[-0.014887642627, -0.270972293201, -0.535007161890, 0.633879417535, -0.412041371931, 1.503043382562, 0.978048537358, 0.212587176145]
Berkelium;Bk;Actinide;Likely without hybridisation;97;0;97;1s^2 2s^2 2p^6 3s^2 3p^6 4s^2 3d^10 4p^6 5s^2 4d^10 5p^6 6s^2 4f^14 5d^10 6p^6 7s^2 5f^9;No special;2P;-29099,83139408;0,229;6;2;1;0;2;[1, 1, 2, 2, 3, 3, 3, 4, 3, 3, 3, 3, 3, 3, 3];[110.699843, 93.919675, 77.746438, 45.481241, 40.473190, 28.589737, 22.356593, 13.102682, 13.101116, 6.776123, 5.561570, 2.835207, 2.098815, 0.910937, 0.649692];[0.206146941139, 1.211879765263, -0.004961909705, 0.004946070513, -0.004173485644, 0.004110694562, -0.003199092499, -0.001353685222, 0.001952463244, 0.000583787359, -0.000387777359, 0.000079903066, -0.000044264885, 0.000010323759, -0.000005515433]
Berkelium;Bk;Actinide;Likely without hybridisation;97;0;97;1s^2 2s^2 2p^6 3s^2 3p^6 4s^2 3d^10 4p^6 5s^2 4d^10 5p^6 6s^2 4f^14 5d^10 6p^6 7s^2 5f^9;No special;2P;-29099,83139408;0,229;6;2;2;0;2;[1, 1, 2, 2, 3, 3, 3, 4, 3, 3, 3, 3, 3, 3, 3];[110.699843, 93.919675, 77.746438, 45.481241, 40.473190, 28.589737, 22.356593, 13.102682, 13.101116, 6.776123, 5.561570, 2.835207, 2.098815, 0.910937, 0.649692];[0.055775027265, -0.567524326844, -0.361491512740, 1.689100899295, 0.126630520853, -0.003852176323, 0.002546432940, 0.001011304118, -0.001775120863, -0.000246356003, 0.000170271313, -0.000035496760, 0.000018667619, -0.000004384062, 0.000002262742]
Berkelium;Bk;Actinide;Likely without hybridisation;97;0;97;1s^2 2s^2 2p^6 3s^2 3p^6 4s^2 3d^10 4p^6 5s^2 4d^10 5p^6 6s^2 4f^14 5d^10 6p^6 7s^2 5f^9;No special;2P;-29099,83139408;0,229;6;2;3;0;2;[1, 1, 2, 2, 3, 3, 3, 4, 3, 3, 3, 3, 3, 3, 3];[110.699843, 93.919675, 77.746438, 45.481241, 40.473190, 28.589737, 22.356593, 13.102682, 13.101116, 6.776123, 5.561570, 2.835207, 2.098815, 0.910937, 0.649692];[-0.015808786307, 0.260529392309, 0.206790691152, -0.913431771813, -0.761679019817, 1.295630623797, 0.881914891204, 0.005084097757, -0.002262176014, -0.003773121784, 0.002165868071, -0.000379150656, 0.000218071731, -0.000050204581, 0.000026304372]
Berkelium;Bk;Actinide;Likely without hybridisation;97;0;97;1s^2 2s^2 2p^6 3s^2 3p^6 4s^2 3d^10 4p^6 5s^2 4d^10 5p^6 6s^2 4f^14 5d^10 6p^6 7s^2 5f^9;No special;2P;-29099,83139408;0,229;6;2;4;0;2;[1, 1, 2, 2, 3, 3, 3, 4, 3, 3, 3, 3, 3, 3, 3];[110.699843, 93.919675, 77.746438, 45.481241, 40.473190, 28.589737, 22.356593, 13.102682, 13.101116, 6.776123, 5.561570, 2.835207, 2.098815, 0.910937, 0.649692];[0.008943486568, -0.137575119612, -0.109124961113, 0.483021813801, 0.505763499255, -0.407506769369, -1.923004751444, 0.123575536715, 2.241131385193, 0.051668716765, -0.017946511528, 0.001082014797, -0.000552391817, 0.000079195959, -0.000038042345]
Berkelium;Bk;Actinide;Likely without hybridisation;97;0;97;1s^2 2s^2 2p^6 3s^2 3p^6 4s^2 3d^10 4p^6 5s^2 4d^10 5p^6 6s^2 4f^14 5d^10 6p^6 7s^2 5f^9;No special;2P;-29099,83139408;0,229;6;2;5;0;2;[1, 1, 2, 2, 3, 3, 3, 4, 3, 3, 3, 3, 3, 3, 3];[110.699843, 93.919675, 77.746438, 45.481241, 40.473190, 28.589737, 22.356593, 13.102682, 13.101116, 6.776123, 5.561570, 2.835207, 2.098815, 0.910937, 0.649692];[-0.007668714463, 0.073418331405, 0.051432401679, -0.236806808328, -0.291072162615, 0.226974347114, 1.055008832963, -1.256701849909, -1.284883307830, 1.857427668557, 0.585646766539, 0.011006541313, -0.002155544312, 0.000353694812, -0.000170271313]
Berkelium;Bk;Actinide;Likely without hybridisation;97;0;97;1s^2 2s^2 2p^6 3s^2 3p^6 4s^2 3d^10 4p^6 5s^2 4d^10 5p^6 6s^2 4f^14 5d^10 6p^6 7s^2 5f^9;No special;2P;-29099,83139408;0,229;6;2;6;0;2;[1, 1, 2, 2, 3, 3, 3, 4, 3, 3, 3, 3, 3, 3, 3];[110.699843, 93.919675, 77.746438, 45.481241, 40.473190, 28.589737, 22.356593, 13.102682, 13.101116, 6.776123, 5.561570, 2.835207, 2.098815, 0.910937, 0.649692];[0.002822487428, -0.030026582356, -0.021744240628, 0.099034405925, 0.120922189229, -0.085905412897, -0.457573606432, 0.703256019078, 0.555659216477, -0.756240378720, -1.099852413655, 1.482555574196, 0.473304610993, -0.002899703488, 0.001451548800]
Berkelium;Bk;Actinide;Likely without hybridisation;97;0;97;1s^2 2s^2 2p^6 3s^2 3p^6 4s^2 3d^10 4p^6 5s^2 4d^10 5p^6 6s^2 4f^14 5d^10 6p^6 7s^2 5f^9;No special;2P;-29099,83139408;0,229;6;2;7;0;2;[1, 1, 2, 2, 3, 3, 3, 4, 3, 3, 3, 3, 3, 3, 3];[110.699843, 93.919675, 77.746438, 45.481241, 40.473190, 28.589737, 22.356593, 13.102682, 13.101116, 6.776123, 5.561570, 2.835207, 2.098815, 0.910937, 0.649692];[-0.001014415388, 0.008290685588, 0.005460561407, -0.025669814635, -0.033572440021, 0.027388508377, 0.114273122745, -0.206582801759, -0.138038698817, 0.218048538216, 0.317649336672, -0.420615821985, -0.352293609152, 0.866041333916, 0.729179260783]
Berkelium;Bk;Actinide;Likely without hybridisation;97;0;97;1s^2 2s^2 2p^6 3s^2 3p^6 4s^2 3d^10 4p^6 5s^2 4d^10 5p^6 6s^2 4f^14 5d^10 6p^6 7s^2 5f^9;No special;2P;-29099,83139408;0,229;6;2;2;1;6;[2, 2, 3, 3, 4, 4, 3, 3, 3, 3, 3, 3];[93.295612, 52.603107, 47.296425, 29.420392, 29.414711, 16.415002, 15.073667, 11.874683, 6.802757, 5.389001, 2.469651, 1.672196];[-0.010548972526, -1.785727502182, -0.678621580228, -0.105530631741, 0.063852318819, 0.037278294497, -0.044450400464, -0.007499847694, 0.001570612823, -0.000790940238, 0.000086956886, -0.000035272652]
Berkelium;Bk;Actinide;Likely without hybridisation;97;0;97;1s^2 2s^2 2p^6 3s^2 3p^6 4s^2 3d^10 4p^6 5s^2 4d^10 5p^6 6s^2 4f^14 5d^10 6p^6 7s^2 5f^9;No special;2P;-29099,83139408;0,229;6;2;3;1;6;[2, 2, 3, 3, 4, 4, 3, 3, 3, 3, 3, 3];[93.295612, 52.603107, 47.296425, 29.420392, 29.414711, 16.415002, 15.073667, 11.874683, 6.802757, 5.389001, 2.469651, 1.672196];[-0.003441533089, -0.929817243248, -0.611026930980, 1.316115492828, 1.047921840686, -0.837996160648, 1.377568046546, 0.021913625137, -0.006772104292, 0.002763269379, -0.000256216627, 0.000101408875]
Berkelium;Bk;Actinide;Likely without hybridisation;97;0;97;1s^2 2s^2 2p^6 3s^2 3p^6 4s^2 3d^10 4p^6 5s^2 4d^10 5p^6 6s^2 4f^14 5d^10 6p^6 7s^2 5f^9;No special;2P;-29099,83139408;0,229;6;2;4;1;6;[2, 2, 3, 3, 4, 4, 3, 3, 3, 3, 3, 3];[93.295612, 52.603107, 47.296425, 29.420392, 29.414711, 16.415002, 15.073667, 11.874683, 6.802757, 5.389001, 2.469651, 1.672196];[0.001148320791, 0.491106281847, 0.335280032268, -0.724850310246, -0.973466415618, 2.634020827811, -2.570426195313, 2.482533849311, 0.060522482463, -0.014463991982, 0.000817149778, -0.000321373054]
Berkelium;Bk;Actinide;Likely without hybridisation;97;0;97;1s^2 2s^2 2p^6 3s^2 3p^6 4s^2 3d^10 4p^6 5s^2 4d^10 5p^6 6s^2 4f^14 5d^10 6p^6 7s^2 5f^9;No special;2P;-29099,83139408;0,229;6;2;5;1;6;[2, 2, 3, 3, 4, 4, 3, 3, 3, 3, 3, 3];[93.295612, 52.603107, 47.296425, 29.420392, 29.414711, 16.415002, 15.073667, 11.874683, 6.802757, 5.389001, 2.469651, 1.672196];[-0.000298347851, -0.242241308317, -0.159867172808, 0.371939095758, 0.619286120495, -0.752517296890, 2.290690792452, -4.693410467985, 2.183565052990, 1.808349519752, 0.024189446057, -0.005469710596]
Berkelium;Bk;Actinide;Likely without hybridisation;97;0;97;1s^2 2s^2 2p^6 3s^2 3p^6 4s^2 3d^10 4p^6 5s^2 4d^10 5p^6 6s^2 4f^14 5d^10 6p^6 7s^2 5f^9;No special;2P;-29099,83139408;0,229;6;2;6;1;6;[2, 2, 3, 3, 4, 4, 3, 3, 3, 3, 3, 3];[93.295612, 52.603107, 47.296425, 29.420392, 29.414711, 16.415002, 15.073667, 11.874683, 6.802757, 5.389001, 2.469651, 1.672196];[0.000222168720, 0.091895792037, 0.063235047404, -0.142848363024, -0.226500887230, 0.342176080741, -1.053382733119, 2.085094830484, -0.679810072651, -1.846617653055, 2.431179317058, 0.694456306670]
Berkelium;Bk;Actinide;Likely without hybridisation;97;0;97;1s^2 2s^2 2p^6 3s^2 3p^6 4s^2 3d^10 4p^6 5s^2 4d^10 5p^6 6s^2 4f^14 5d^10 6p^6 7s^2 5f^9;No special;2P;-29099,83139408;0,229;6;2;3;2;10;[3, 3, 4, 4, 4, 4, 4, 4, 4, 4, 4];[64.293214, 36.233835, 30.164001, 20.837165, 15.686011, 12.214648, 8.219944, 5.676054, 3.664204, 2.075910, 1.176063];[0.006390014468, 1.379207162905, 1.568145979862, 0.507450379899, -0.112369639287, 0.045901408921, -0.011021170101, 0.003637251765, -0.001057465650, 0.000267212462, -0.000075578436]
Berkelium;Bk;Actinide;Likely without hybridisation;97;0;97;1s^2 2s^2 2p^6 3s^2 3p^6 4s^2 3d^10 4p^6 5s^2 4d^10 5p^6 6s^2 4f^14 5d^10 6p^6 7s^2 5f^9;No special;2P;-29099,83139408;0,229;6;2;4;2;10;[3, 3, 4, 4, 4, 4, 4, 4, 4, 4, 4];[64.293214, 36.233835, 30.164001, 20.837165, 15.686011, 12.214648, 8.219944, 5.676054, 3.664204, 2.075910, 1.176063];[-0.002363802551, -0.785302009144, -1.024599781610, 0.033707350035, 1.994971560993, 1.463782911382, 0.111278337267, -0.012832206517, 0.002999420361, -0.000723845356, 0.000178352460]
Berkelium;Bk;Actinide;Likely without hybridisation;97;0;97;1s^2 2s^2 2p^6 3s^2 3p^6 4s^2 3d^10 4p^6 5s^2 4d^10 5p^6 6s^2 4f^14 5d^10 6p^6 7s^2 5f^9;No special;2P;-29099,83139408;0,229;6;2;5;2;10;[3, 3, 4, 4, 4, 4, 4, 4, 4, 4, 4];[64.293214, 36.233835, 30.164001, 20.837165, 15.686011, 12.214648, 8.219944, 5.676054, 3.664204, 2.075910, 1.176063];[0.001293371563, 0.361025856262, 0.503404245633, -0.125725202757, -0.871798841299, -1.693556535992, 1.694339515941, 2.292387885893, 0.263577740342, -0.004138789002, 0.001010980168]
Berkelium;Bk;Actinide;Likely without hybridisation;97;0;97;1s^2 2s^2 2p^6 3s^2 3p^6 4s^2 3d^10 4p^6 5s^2 4d^10 5p^6 6s^2 4f^14 5d^10 6p^6 7s^2 5f^9;No special;2P;-29099,83139408;0,229;6;2;6;2;1;[3, 3, 4, 4, 4, 4, 4, 4, 4, 4, 4];[64.293214, 36.233835, 30.164001, 20.837165, 15.686011, 12.214648, 8.219944, 5.676054, 3.664204, 2.075910, 1.176063];[-0.000034900000, -0.031045900000, -0.041254400000, 0.002738600000, 0.098981400000, 0.127563200000, -0.134002600000, -0.333986300000, 0.144284000000, 0.644384700000, 0.406720400000]
Berkelium;Bk;Actinide;Likely without hybridisation;97;0;97;1s^2 2s^2 2p^6 3s^2 3p^6 4s^2 3d^10 4p^6 5s^2 4d^10 5p^6 6s^2 4f^14 5d^10 6p^6 7s^2 5f^9;No special;2P;-29099,83139408;0,229;6;2;4;3;14;[4, 4, 4, 5, 4, 4, 4, 4];[34.300865, 21.309989, 13.913638, 8.985940, 8.603271, 5.070205, 3.182839, 2.022226];[0.061544277361, 0.968928371907, 2.185051958231, -0.506062529053, 1.309938536149, 0.010616578669, -0.001268047688, 0.000403350666]
Berkelium;Bk;Actinide;Likely without hybridisation;97;0;97;1s^2 2s^2 2p^6 3s^2 3p^6 4s^2 3d^10 4p^6 5s^2 4d^10 5p^6 6s^2 4f^14 5d^10 6p^6 7s^2 5f^9;No special;2P;-29099,83139408;0,229;6;2;5;3;8;[4, 4, 4, 5, 4, 4, 4, 4];[34.300865, 21.309989, 13.913638, 8.985940, 8.603271, 5.070205, 3.182839, 2.022226];[-0.015866061956, -0.293513236645, -0.588163783838, 0.715280087049, -0.437068923991, 1.615262122198, 1.016108767610, 0.218494015488]
Californium;Cf;Actinide;Likely without hybridisation;98;0;98;1s^2 2s^2 2p^6 3s^2 3p^6 4s^2 3d^10 4p^6 5s^2 4d^10 5p^6 6s^2 4f^14 5d^10 6p^6 7s^2 5f^10;No special;3P;-29817,418706498;0,2316;5;3;1;0;2;[1, 1, 2, 2, 3, 3, 3, 4, 3, 3, 3, 3, 3, 3, 3];[111.875922, 94.929823, 78.603768, 45.933619, 40.930233, 28.869705, 22.532170, 13.352997, 13.352629, 7.005320, 5.716672, 2.804739, 2.067300, 0.845180, 0.612276];[0.203456258415, 1.214478806948, -0.004841560131, 0.004898977201, -0.004144070002, 0.004099522275, -0.003254812514, -0.001395687365, 0.002036891794, 0.000556917301, -0.000347472272, 0.000064488138, -0.000036062446, 0.000008768124, -0.000004949747]
Californium;Cf;Actinide;Likely without hybridisation;98;0;98;1s^2 2s^2 2p^6 3s^2 3p^6 4s^2 3d^10 4p^6 5s^2 4d^10 5p^6 6s^2 4f^14 5d^10 6p^6 7s^2 5f^10;No special;3P;-29817,418706498;0,2316;5;3;2;0;2;[1, 1, 2, 2, 3, 3, 3, 4, 3, 3, 3, 3, 3, 3, 3];[111.875922, 94.929823, 78.603768, 45.933619, 40.930233, 28.869705, 22.532170, 13.352997, 13.352629, 7.005320, 5.716672, 2.804739, 2.067300, 0.845180, 0.612276];[0.055624696363, -0.567245585351, -0.361774355453, 1.691577470086, 0.123228205864, -0.002956837716, 0.002067721650, 0.000863094537, -0.001569918476, -0.000173806847, 0.000115965512, -0.000022203153, 0.000011455130, -0.000002687006, 0.000001555635]