Element name;Symbol;clasificacion;Possible hybridization;Z;Q;N;Complete electronic configuration;Special configuration;Config;Energy;Ionization;Valence_n;Valence_l;n;l;mz;N_list;A_list;C_list
Bismuth;Bi;Post-transitional metal;sp2;83;0;83;1s^2 2s^2 2p^6 3s^2 3p^6 4s^2 3d^10 4p^6 5s^2 4d^10 5p^6 6s^2 4f^14 5d^10 6p^3;Half orbital;2P;-20095,586252534;0,268;6;1;5;1;6;[2, 2, 3, 3, 4, 4, 3, 3, 3, 3, 3, 3];[77.331767, 43.879146, 39.038245, 23.017341, 23.016667, 13.120480, 13.118232, 9.144629, 4.600151, 3.378836, 1.434936, 0.962057];[-0.000389223920, -0.205109003408, -0.134123035611, 0.561628561235, 0.490684479713, -0.021164326225, 0.347242360376, -2.782612509435, 2.284419608813, 1.076659499298, 0.012421852384, -0.002783845093]
Bismuth;Bi;Post-transitional metal;sp2;83;0;83;1s^2 2s^2 2p^6 3s^2 3p^6 4s^2 3d^10 4p^6 5s^2 4d^10 5p^6 6s^2 4f^14 5d^10 6p^3;Half orbital;2P;-20095,586252534;0,268;6;1;6;1;3;[2, 2, 3, 3, 4, 4, 3, 3, 3, 3, 3, 3];[77.331767, 43.879146, 39.038245, 23.017341, 23.016667, 13.120480, 13.118232, 9.144629, 4.600151, 3.378836, 1.434936, 0.962057];[0.000175629952, 0.039381985622, 0.027637641916, -0.109856361701, -0.084057638127, 0.041226446527, -0.107924259025, 0.569953142071, -0.475425083607, -0.478438852012, 1.166351755487, 0.798132995845]
Bismuth;Bi;Post-transitional metal;sp2;83;0;83;1s^2 2s^2 2p^6 3s^2 3p^6 4s^2 3d^10 4p^6 5s^2 4d^10 5p^6 6s^2 4f^14 5d^10 6p^3;Half orbital;2P;-20095,586252534;0,268;6;1;3;2;10;[3, 3, 4, 4, 4, 4, 4, 4, 4];[49.029127, 29.255646, 24.066237, 15.927546, 12.051763, 9.043747, 5.731630, 3.700914, 2.334962];[0.019598532027, 1.520232729894, 1.545567001140, 0.374405769270, -0.095827132392, 0.032612253282, -0.006361237741, 0.002018481830, -0.000469598233]
Bismuth;Bi;Post-transitional metal;sp2;83;0;83;1s^2 2s^2 2p^6 3s^2 3p^6 4s^2 3d^10 4p^6 5s^2 4d^10 5p^6 6s^2 4f^14 5d^10 6p^3;Half orbital;2P;-20095,586252534;0,268;6;1;4;2;10;[3, 3, 4, 4, 4, 4, 4, 4, 4];[49.029127, 29.255646, 24.066237, 15.927546, 12.051763, 9.043747, 5.731630, 3.700914, 2.334962];[-0.008088157571, -0.810936696768, -0.932137628877, 0.445646192854, 1.811966758066, 1.325912032588, 0.081930503214, -0.007629627311, 0.001266492203]
Bismuth;Bi;Post-transitional metal;sp2;83;0;83;1s^2 2s^2 2p^6 3s^2 3p^6 4s^2 3d^10 4p^6 5s^2 4d^10 5p^6 6s^2 4f^14 5d^10 6p^3;Half orbital;2P;-20095,586252534;0,268;6;1;5;2;10;[3, 3, 4, 4, 4, 4, 4, 4, 4];[49.029127, 29.255646, 24.066237, 15.927546, 12.051763, 9.043747, 5.731630, 3.700914, 2.334962];[0.003099032107, 0.293784132779, 0.357559051263, -0.266496522622, -0.655389634536, -0.961726428488, 1.344433176615, 2.049913289289, 0.504690660185]
Bismuth;Bi;Post-transitional metal;sp2;83;0;83;1s^2 2s^2 2p^6 3s^2 3p^6 4s^2 3d^10 4p^6 5s^2 4d^10 5p^6 6s^2 4f^14 5d^10 6p^3;Half orbital;2P;-20095,586252534;0,268;6;1;4;3;14;[4, 4, 4, 5, 4, 4];[27.764767, 16.963291, 11.441274, 7.601823, 6.885683, 4.337840];[0.074772158720, 0.895470657427, 1.492631318875, -1.501857497660, 3.085488543341, 0.061699556142]
Polonium;Po;Post-transitional metal;sp2;84;0;84;1s^2 2s^2 2p^6 3s^2 3p^6 4s^2 3d^10 4p^6 5s^2 4d^10 5p^6 6s^2 4f^14 5d^10 6p^4;No special;1S;-20676,500744145;0,3099;6;1;1;0;2;[1, 1, 2, 2, 3, 3, 3, 4, 3, 3, 3, 3, 3];[107.662632, 83.017194, 69.115164, 39.156661, 36.235025, 24.316654, 20.292194, 13.862770, 10.340302, 4.835940, 3.714369, 1.941823, 1.311138];[0.047433854253, 1.359769027227, 0.009723566769, 0.001912158158, -0.001652367126, 0.001585474825, -0.001076216521, 0.000536552626, -0.000466549054, 0.000088388348, -0.000061659711, 0.000014990664, -0.000005798276]
Polonium;Po;Post-transitional metal;sp2;84;0;84;1s^2 2s^2 2p^6 3s^2 3p^6 4s^2 3d^10 4p^6 5s^2 4d^10 5p^6 6s^2 4f^14 5d^10 6p^4;No special;1S;-20676,500744145;0,3099;6;1;2;0;2;[1, 1, 2, 2, 3, 3, 3, 4, 3, 3, 3, 3, 3];[107.662632, 83.017194, 69.115164, 39.156661, 36.235025, 24.316654, 20.292194, 13.862770, 10.340302, 4.835940, 3.714369, 1.941823, 1.311138];[-0.018679781260, 0.505124698989, 0.356789676909, -1.633635019115, -0.143022811675, -0.017509095273, 0.007875331065, -0.001320875467, 0.001222163361, -0.000234476609, 0.000147078210, -0.000033234019, 0.000012869343]
Polonium;Po;Post-transitional metal;sp2;84;0;84;1s^2 2s^2 2p^6 3s^2 3p^6 4s^2 3d^10 4p^6 5s^2 4d^10 5p^6 6s^2 4f^14 5d^10 6p^4;No special;1S;-20676,500744145;0,3099;6;1;3;0;2;[1, 1, 2, 2, 3, 3, 3, 4, 3, 3, 3, 3, 3];[107.662632, 83.017194, 69.115164, 39.156661, 36.235025, 24.316654, 20.292194, 13.862770, 10.340302, 4.835940, 3.714369, 1.941823, 1.311138];[-0.006370749256, 0.237340249684, 0.189788167177, -0.848587958658, -0.618743182276, 0.714329311271, 1.266443660033, 0.058513227565, -0.029421723216, 0.002634255603, -0.001868600380, 0.000423274119, -0.000156553441]
Polonium;Po;Post-transitional metal;sp2;84;0;84;1s^2 2s^2 2p^6 3s^2 3p^6 4s^2 3d^10 4p^6 5s^2 4d^10 5p^6 6s^2 4f^14 5d^10 6p^4;No special;1S;-20676,500744145;0,3099;6;1;4;0;2;[1, 1, 2, 2, 3, 3, 3, 4, 3, 3, 3, 3, 3];[107.662632, 83.017194, 69.115164, 39.156661, 36.235025, 24.316654, 20.292194, 13.862770, 10.340302, 4.835940, 3.714369, 1.941823, 1.311138];[0.002508956281, -0.118905803532, -0.098741522296, 0.437333099085, 0.365895373773, 0.192597219576, -2.071374138913, -0.043816154539, 2.141784438071, 0.040191100915, -0.015861677894, 0.002363433705, -0.000852629357]
Polonium;Po;Post-transitional metal;sp2;84;0;84;1s^2 2s^2 2p^6 3s^2 3p^6 4s^2 3d^10 4p^6 5s^2 4d^10 5p^6 6s^2 4f^14 5d^10 6p^4;No special;1S;-20676,500744145;0,3099;6;1;5;0;2;[1, 1, 2, 2, 3, 3, 3, 4, 3, 3, 3, 3, 3];[107.662632, 83.017194, 69.115164, 39.156661, 36.235025, 24.316654, 20.292194, 13.862770, 10.340302, 4.835940, 3.714369, 1.941823, 1.311138];[-0.000998717618, 0.053697264699, 0.045412518808, -0.200267631096, -0.163447166786, -0.298002374756, 1.483935563790, 0.968999899634, -2.951785013994, 1.748531527198, 0.288915911197, 0.003463126172, -0.000070710678]
Polonium;Po;Post-transitional metal;sp2;84;0;84;1s^2 2s^2 2p^6 3s^2 3p^6 4s^2 3d^10 4p^6 5s^2 4d^10 5p^6 6s^2 4f^14 5d^10 6p^4;No special;1S;-20676,500744145;0,3099;6;1;6;0;2;[1, 1, 2, 2, 3, 3, 3, 4, 3, 3, 3, 3, 3];[107.662632, 83.017194, 69.115164, 39.156661, 36.235025, 24.316654, 20.292194, 13.862770, 10.340302, 4.835940, 3.714369, 1.941823, 1.311138];[0.000092772410, -0.018077467704, -0.016155268630, 0.070015309310, 0.053339892932, 0.129992955018, -0.569895962988, -0.436754402895, 1.225428355454, -0.731282479193, -0.460471471443, 1.064682760837, 0.699484877192]
Polonium;Po;Post-transitional metal;sp2;84;0;84;1s^2 2s^2 2p^6 3s^2 3p^6 4s^2 3d^10 4p^6 5s^2 4d^10 5p^6 6s^2 4f^14 5d^10 6p^4;No special;1S;-20676,500744145;0,3099;6;1;2;1;6;[2, 2, 3, 3, 4, 4, 3, 3, 3, 3, 3, 3];[78.287503, 44.424063, 39.555229, 23.458904, 23.448994, 13.364416, 13.363421, 9.337108, 4.710557, 3.530875, 1.603240, 1.031749];[-0.015631663743, -1.859765289249, -0.618584831581, -0.068982285187, 0.045747405283, 0.017393581715, -0.024188956159, -0.005020719126, 0.000669445547, -0.000361544686, 0.000060992295, -0.000025229744]
Polonium;Po;Post-transitional metal;sp2;84;0;84;1s^2 2s^2 2p^6 3s^2 3p^6 4s^2 3d^10 4p^6 5s^2 4d^10 5p^6 6s^2 4f^14 5d^10 6p^4;No special;1S;-20676,500744145;0,3099;6;1;3;1;6;[2, 2, 3, 3, 4, 4, 3, 3, 3, 3, 3, 3];[78.287503, 44.424063, 39.555229, 23.458904, 23.448994, 13.364416, 13.363421, 9.337108, 4.710557, 3.530875, 1.603240, 1.031749];[-0.004819126120, -0.955161133821, -0.608477012158, 1.960226212070, 0.658128169244, -0.237067741031, 0.570051866563, 0.034677426289, -0.003029773863, 0.001176244974, -0.000161176425, 0.000065401376]
Polonium;Po;Post-transitional metal;sp2;84;0;84;1s^2 2s^2 2p^6 3s^2 3p^6 4s^2 3d^10 4p^6 5s^2 4d^10 5p^6 6s^2 4f^14 5d^10 6p^4;No special;1S;-20676,500744145;0,3099;6;1;4;1;6;[2, 2, 3, 3, 4, 4, 3, 3, 3, 3, 3, 3];[78.287503, 44.424063, 39.555229, 23.458904, 23.448994, 13.364416, 13.363421, 9.337108, 4.710557, 3.530875, 1.603240, 1.031749];[0.001555181038, 0.483424437064, 0.324924079533, -1.189818576945, -0.838579384156, 1.290186419156, -0.657966257972, 2.234290311329, 0.042451616834, -0.011882719691, 0.001249484718, -0.000527130193]
Polonium;Po;Post-transitional metal;sp2;84;0;84;1s^2 2s^2 2p^6 3s^2 3p^6 4s^2 3d^10 4p^6 5s^2 4d^10 5p^6 6s^2 4f^14 5d^10 6p^4;No special;1S;-20676,500744145;0,3099;6;1;5;1;6;[2, 2, 3, 3, 4, 4, 3, 3, 3, 3, 3, 3];[78.287503, 44.424063, 39.555229, 23.458904, 23.448994, 13.364416, 13.363421, 9.337108, 4.710557, 3.530875, 1.603240, 1.031749];[-0.000388734022, -0.209967321364, -0.136806206675, 0.555695407180, 0.506019265299, -0.029844338077, 0.417632612267, -2.903098745749, 2.359928804369, 1.036781561336, 0.014947276308, -0.001281083135]
Polonium;Po;Post-transitional metal;sp2;84;0;84;1s^2 2s^2 2p^6 3s^2 3p^6 4s^2 3d^10 4p^6 5s^2 4d^10 5p^6 6s^2 4f^14 5d^10 6p^4;No special;1S;-20676,500744145;0,3099;6;1;6;1;4;[2, 2, 3, 3, 4, 4, 3, 3, 3, 3, 3, 3];[78.287503, 44.424063, 39.555229, 23.458904, 23.448994, 13.364416, 13.363421, 9.337108, 4.710557, 3.530875, 1.603240, 1.031749];[0.000186200000, 0.049942800000, 0.034353200000, -0.134321400000, -0.111655800000, 0.039209600000, -0.144201000000, 0.751087200000, -0.593228200000, -0.647677200000, 1.330287400000, 1.006615200000]
Polonium;Po;Post-transitional metal;sp2;84;0;84;1s^2 2s^2 2p^6 3s^2 3p^6 4s^2 3d^10 4p^6 5s^2 4d^10 5p^6 6s^2 4f^14 5d^10 6p^4;No special;1S;-20676,500744145;0,3099;6;1;3;2;10;[3, 3, 4, 4, 4, 4, 4, 4, 4];[49.998233, 29.763139, 24.506491, 16.257625, 12.359076, 9.303793, 5.946018, 3.885400, 2.463053];[0.018145781670, 1.506978043081, 1.550153884887, 0.388299236170, -0.101386732746, 0.034482424290, -0.006841903946, 0.002156673364, -0.000481931115]
Polonium;Po;Post-transitional metal;sp2;84;0;84;1s^2 2s^2 2p^6 3s^2 3p^6 4s^2 3d^10 4p^6 5s^2 4d^10 5p^6 6s^2 4f^14 5d^10 6p^4;No special;1S;-20676,500744145;0,3099;6;1;4;2;10;[3, 3, 4, 4, 4, 4, 4, 4, 4];[49.998233, 29.763139, 24.506491, 16.257625, 12.359076, 9.303793, 5.946018, 3.885400, 2.463053];[-0.007442420473, -0.808500478059, -0.940931606822, 0.403158778895, 1.804446229335, 1.365499321704, 0.087463540436, -0.008359480995, 0.001241193982]
Polonium;Po;Post-transitional metal;sp2;84;0;84;1s^2 2s^2 2p^6 3s^2 3p^6 4s^2 3d^10 4p^6 5s^2 4d^10 5p^6 6s^2 4f^14 5d^10 6p^4;No special;1S;-20676,500744145;0,3099;6;1;5;2;10;[3, 3, 4, 4, 4, 4, 4, 4, 4];[49.998233, 29.763139, 24.506491, 16.257625, 12.359076, 9.303793, 5.946018, 3.885400, 2.463053];[0.002977284417, 0.302836468809, 0.373850473313, -0.261145316365, -0.665360612227, -1.041191303810, 1.339166719400, 2.115985602493, 0.461157481004]
Polonium;Po;Post-transitional metal;sp2;84;0;84;1s^2 2s^2 2p^6 3s^2 3p^6 4s^2 3d^10 4p^6 5s^2 4d^10 5p^6 6s^2 4f^14 5d^10 6p^4;No special;1S;-20676,500744145;0,3099;6;1;4;3;14;[4, 4, 4, 5, 4, 4];[28.178564, 17.204040, 11.459603, 7.676215, 6.997082, 4.545544];[0.074988426517, 0.925713351587, 1.609353069387, -1.199208301610, 2.642085305551, 0.056635971201]
Astatine;At;Post-transitional metal;sp3;85;0;85;1s^2 2s^2 2p^6 3s^2 3p^6 4s^2 3d^10 4p^6 5s^2 4d^10 5p^6 6s^2 4f^14 5d^10 6p^5;No special;2S;-21266,881543541;0,3493;6;1;1;0;2;[1, 1, 2, 2, 3, 3, 3, 4, 3, 3, 3, 3, 3];[108.903934, 84.018911, 69.951611, 39.611892, 36.654114, 24.547370, 20.496500, 14.102471, 10.565212, 4.939179, 3.843808, 2.082126, 1.407323];[0.047028116382, 1.360182401852, 0.009722435399, 0.001851205553, -0.001608809349, 0.001569777054, -0.001073105251, 0.000564554054, -0.000496671803, 0.000098429264, -0.000071417785, 0.000017394827, -0.000006363961]
Astatine;At;Post-transitional metal;sp3;85;0;85;1s^2 2s^2 2p^6 3s^2 3p^6 4s^2 3d^10 4p^6 5s^2 4d^10 5p^6 6s^2 4f^14 5d^10 6p^5;No special;2S;-21266,881543541;0,3493;6;1;2;0;2;[1, 1, 2, 2, 3, 3, 3, 4, 3, 3, 3, 3, 3];[108.903934, 84.018911, 69.951611, 39.611892, 36.654114, 24.547370, 20.496500, 14.102471, 10.565212, 4.939179, 3.843808, 2.082126, 1.407323];[-0.018754027472, 0.505405137539, 0.357459024188, -1.637561158807, -0.139611304299, -0.017201220981, 0.007875189643, -0.001392717516, 0.001291742668, -0.000258518239, 0.000169422785, -0.000037759502, 0.000013859293]
Astatine;At;Post-transitional metal;sp3;85;0;85;1s^2 2s^2 2p^6 3s^2 3p^6 4s^2 3d^10 4p^6 5s^2 4d^10 5p^6 6s^2 4f^14 5d^10 6p^5;No special;2S;-21266,881543541;0,3493;6;1;3;0;2;[1, 1, 2, 2, 3, 3, 3, 4, 3, 3, 3, 3, 3];[108.903934, 84.018911, 69.951611, 39.611892, 36.654114, 24.547370, 20.496500, 14.102471, 10.565212, 4.939179, 3.843808, 2.082126, 1.407323];[-0.006379093116, 0.237726612829, 0.190406319925, -0.851726239974, -0.622774398035, 0.762728366280, 1.224632011797, 0.057560330466, -0.029334324818, 0.002637791137, -0.001950907609, 0.000443355952, -0.000152452222]
Astatine;At;Post-transitional metal;sp3;85;0;85;1s^2 2s^2 2p^6 3s^2 3p^6 4s^2 3d^10 4p^6 5s^2 4d^10 5p^6 6s^2 4f^14 5d^10 6p^5;No special;2S;-21266,881543541;0,3493;6;1;4;0;2;[1, 1, 2, 2, 3, 3, 3, 4, 3, 3, 3, 3, 3];[108.903934, 84.018911, 69.951611, 39.611892, 36.654114, 24.547370, 20.496500, 14.102471, 10.565212, 4.939179, 3.843808, 2.082126, 1.407323];[0.002606678438, -0.119627900977, -0.099157159662, 0.439839934045, 0.372067284602, 0.171850565195, -2.088210068531, -0.085172143165, 2.207146419076, 0.043578566660, -0.018441344853, 0.002658438655, -0.000904530994]
Astatine;At;Post-transitional metal;sp3;85;0;85;1s^2 2s^2 2p^6 3s^2 3p^6 4s^2 3d^10 4p^6 5s^2 4d^10 5p^6 6s^2 4f^14 5d^10 6p^5;No special;2S;-21266,881543541;0,3493;6;1;5;0;2;[1, 1, 2, 2, 3, 3, 3, 4, 3, 3, 3, 3, 3];[108.903934, 84.018911, 69.951611, 39.611892, 36.654114, 24.547370, 20.496500, 14.102471, 10.565212, 4.939179, 3.843808, 2.082126, 1.407323];[-0.001066175605, 0.054749722432, 0.046173507126, -0.203988002714, -0.168824148171, -0.300987638165, 1.545867935485, 1.074632884619, -3.133721750316, 1.825751971765, 0.233300690064, 0.006521504422, -0.000521420540]
Astatine;At;Post-transitional metal;sp3;85;0;85;1s^2 2s^2 2p^6 3s^2 3p^6 4s^2 3d^10 4p^6 5s^2 4d^10 5p^6 6s^2 4f^14 5d^10 6p^5;No special;2S;-21266,881543541;0,3493;6;1;6;0;2;[1, 1, 2, 2, 3, 3, 3, 4, 3, 3, 3, 3, 3];[108.903934, 84.018911, 69.951611, 39.611892, 36.654114, 24.547370, 20.496500, 14.102471, 10.565212, 4.939179, 3.843808, 2.082126, 1.407323];[0.000124592215, -0.019161462399, -0.017046081753, 0.074049777761, 0.057354138129, 0.138051426740, -0.620310555167, -0.503585327526, 1.358563551587, -0.769069275630, -0.531461315318, 1.098377671752, 0.721909213123]
Astatine;At;Post-transitional metal;sp3;85;0;85;1s^2 2s^2 2p^6 3s^2 3p^6 4s^2 3d^10 4p^6 5s^2 4d^10 5p^6 6s^2 4f^14 5d^10 6p^5;No special;2S;-21266,881543541;0,3493;6;1;2;1;6;[2, 2, 3, 3, 4, 4, 3, 3, 3, 3, 3, 3];[79.295777, 45.026511, 40.133432, 23.914315, 23.911162, 13.577284, 13.501981, 9.503258, 4.822702, 3.674635, 1.751098, 1.110812];[-0.015306861403, -1.855423323731, -0.621762554625, -0.071740655587, 0.047125978110, 0.018497566742, -0.025076406293, -0.005384468353, 0.000786776105, -0.000444337439, 0.000072504896, -0.000027189336]
Astatine;At;Post-transitional metal;sp3;85;0;85;1s^2 2s^2 2p^6 3s^2 3p^6 4s^2 3d^10 4p^6 5s^2 4d^10 5p^6 6s^2 4f^14 5d^10 6p^5;No special;2S;-21266,881543541;0,3493;6;1;3;1;6;[2, 2, 3, 3, 4, 4, 3, 3, 3, 3, 3, 3];[79.295777, 45.026511, 40.133432, 23.914315, 23.911162, 13.577284, 13.501981, 9.503258, 4.822702, 3.674635, 1.751098, 1.110812];[-0.004749070713, -0.954102464354, -0.608749150468, 1.903622178349, 0.701030982089, -0.264382001153, 0.605594697578, 0.038604693193, -0.003770989459, 0.001614213740, -0.000214820250, 0.000080588213]
Astatine;At;Post-transitional metal;sp3;85;0;85;1s^2 2s^2 2p^6 3s^2 3p^6 4s^2 3d^10 4p^6 5s^2 4d^10 5p^6 6s^2 4f^14 5d^10 6p^5;No special;2S;-21266,881543541;0,3493;6;1;4;1;6;[2, 2, 3, 3, 4, 4, 3, 3, 3, 3, 3, 3];[79.295777, 45.026511, 40.133432, 23.914315, 23.911162, 13.577284, 13.501981, 9.503258, 4.822702, 3.674635, 1.751098, 1.110812];[0.001529951293, 0.484800315453, 0.325677787527, -1.149288094916, -0.856940759268, 1.381787047679, -0.747091677110, 2.209061056876, 0.043522288801, -0.013179969459, 0.001262956911, -0.000521986264]
Astatine;At;Post-transitional metal;sp3;85;0;85;1s^2 2s^2 2p^6 3s^2 3p^6 4s^2 3d^10 4p^6 5s^2 4d^10 5p^6 6s^2 4f^14 5d^10 6p^5;No special;2S;-21266,881543541;0,3493;6;1;5;1;6;[2, 2, 3, 3, 4, 4, 3, 3, 3, 3, 3, 3];[79.295777, 45.026511, 40.133432, 23.914315, 23.911162, 13.577284, 13.501981, 9.503258, 4.822702, 3.674635, 1.751098, 1.110812];[-0.000389713818, -0.214008489541, -0.139394827435, 0.543775455245, 0.519516198730, -0.080672474985, 0.502351399358, -2.998024556598, 2.460279010253, 0.979286648196, 0.018196279503, -0.000013717143]
Astatine;At;Post-transitional metal;sp3;85;0;85;1s^2 2s^2 2p^6 3s^2 3p^6 4s^2 3d^10 4p^6 5s^2 4d^10 5p^6 6s^2 4f^14 5d^10 6p^5;No special;2S;-21266,881543541;0,3493;6;1;6;1;5;[2, 2, 3, 3, 4, 4, 3, 3, 3, 3, 3, 3];[79.295777, 45.026511, 40.133432, 23.914315, 23.911162, 13.577284, 13.501981, 9.503258, 4.822702, 3.674635, 1.751098, 1.110812];[0.000196773982, 0.060411624941, 0.041077910387, -0.155804744536, -0.139588779563, 0.050562863534, -0.191713312973, 0.934602177138, -0.713633939602, -0.829691234197, 1.518008635764, 1.163931520056]
Astatine;At;Post-transitional metal;sp3;85;0;85;1s^2 2s^2 2p^6 3s^2 3p^6 4s^2 3d^10 4p^6 5s^2 4d^10 5p^6 6s^2 4f^14 5d^10 6p^5;No special;2S;-21266,881543541;0,3493;6;1;3;2;10;[3, 3, 4, 4, 4, 4, 4, 4, 4];[50.967339, 30.252536, 24.929837, 16.556179, 12.631391, 9.553285, 6.184273, 4.084597, 2.594201];[0.016887511389, 1.496751237128, 1.554080801285, 0.399890881161, -0.108093291208, 0.037245306281, -0.007554365102, 0.002319530664, -0.000491734176]
Astatine;At;Post-transitional metal;sp3;85;0;85;1s^2 2s^2 2p^6 3s^2 3p^6 4s^2 3d^10 4p^6 5s^2 4d^10 5p^6 6s^2 4f^14 5d^10 6p^5;No special;2S;-21266,881543541;0,3493;6;1;4;2;10;[3, 3, 4, 4, 4, 4, 4, 4, 4];[50.967339, 30.252536, 24.929837, 16.556179, 12.631391, 9.553285, 6.184273, 4.084597, 2.594201];[-0.006881748644, -0.807559067999, -0.949405878496, 0.375600793998, 1.799929864380, 1.387878760705, 0.093764378674, -0.008830660366, 0.001145060741]
Astatine;At;Post-transitional metal;sp3;85;0;85;1s^2 2s^2 2p^6 3s^2 3p^6 4s^2 3d^10 4p^6 5s^2 4d^10 5p^6 6s^2 4f^14 5d^10 6p^5;No special;2S;-21266,881543541;0,3493;6;1;5;2;10;[3, 3, 4, 4, 4, 4, 4, 4, 4];[50.967339, 30.252536, 24.929837, 16.556179, 12.631391, 9.553285, 6.184273, 4.084597, 2.594201];[0.002860596371, 0.311624438427, 0.389221672563, -0.261254414945, -0.671034054577, -1.120068944171, 1.314167649585, 2.189458594104, 0.437693380766]
Astatine;At;Post-transitional metal;sp3;85;0;85;1s^2 2s^2 2p^6 3s^2 3p^6 4s^2 3d^10 4p^6 5s^2 4d^10 5p^6 6s^2 4f^14 5d^10 6p^5;No special;2S;-21266,881543541;0,3493;6;1;4;3;14;[4, 4, 4, 5, 4, 4];[28.618551, 17.482248, 11.555443, 7.769969, 7.135223, 4.780973];[0.074576095873, 0.943237403958, 1.703486060089, -0.965468461321, 2.297459577776, 0.055112742478]
Radon;Rn;Noble gas;sp3;86;0;86;1s^2 2s^2 2p^6 3s^2 3p^6 4s^2 3d^10 4p^6 5s^2 4d^10 5p^6 6s^2 4f^14 5d^10 6p^6;Noble gas;1S;-21866,772070663;0,3952;6;1;1;0;2;[1, 1, 2, 2, 3, 3, 3, 4, 3, 3, 3, 3, 3];[110.161562, 85.019704, 70.796388, 40.050427, 37.065897, 24.761481, 20.686346, 14.330607, 10.794813, 5.057300, 4.066550, 2.209589, 1.500547];[0.046600741043, 1.360638485726, 0.009681564627, 0.001822779861, -0.001595374320, 0.001588303252, -0.001091207185, 0.000619001276, -0.000555078823, 0.000122188052, -0.000091923882, 0.000019374726, -0.000006788225]
Radon;Rn;Noble gas;sp3;86;0;86;1s^2 2s^2 2p^6 3s^2 3p^6 4s^2 3d^10 4p^6 5s^2 4d^10 5p^6 6s^2 4f^14 5d^10 6p^6;Noble gas;1S;-21866,772070663;0,3952;6;1;2;0;2;[1, 1, 2, 2, 3, 3, 3, 4, 3, 3, 3, 3, 3];[110.161562, 85.019704, 70.796388, 40.050427, 37.065897, 24.761481, 20.686346, 14.330607, 10.794813, 5.057300, 4.066550, 2.209589, 1.500547];[-0.018771422299, 0.505612178404, 0.357908461259, -1.642566202025, -0.134575855489, -0.017355087416, 0.008158032356, -0.001624789962, 0.001513349933, -0.000332481609, 0.000229809704, -0.000044123463, 0.000015839192]