Element name;Symbol;clasificacion;Possible hybridization;Z;Q;N;Complete electronic configuration;Special configuration;Config;Energy;Ionization;Valence_n;Valence_l;n;l;mz;N_list;A_list;C_list
Xenon;Xe;Noble gas;sp3;54;0;54;1s^2 2s^2 2p^6 3s^2 3p^6 4s^2 3d^10 4p^6 5s^2 4d^10 5p^6;Noble gas;7S;-7232,138355835;0,446;5;1;4;1;6;[2, 3, 3, 2, 3, 3, 3, 3, 2, 2, 2, 2, 2];[66.836641, 59.325786, 39.440533, 27.876421, 22.662415, 13.533766, 12.290050, 5.472844, 4.492251, 3.729958, 1.571562, 1.115472, 0.956336];[-0.048484955020, -0.052338492283, -0.246373352564, 0.840271736619, 0.056656207853, 1.178667274891, -2.942160023831, 2.870211896463, -1.852946154754, 1.880530348646, 0.007282822903, 0.000404655706, -0.000646420343]
Xenon;Xe;Noble gas;sp3;54;0;54;1s^2 2s^2 2p^6 3s^2 3p^6 4s^2 3d^10 4p^6 5s^2 4d^10 5p^6;Noble gas;7S;-7232,138355835;0,446;5;1;5;1;6;[2, 3, 3, 2, 3, 3, 3, 3, 2, 2, 2, 2, 2];[66.836641, 59.325786, 39.440533, 27.876421, 22.662415, 13.533766, 12.290050, 5.472844, 4.492251, 3.729958, 1.571562, 1.115472, 0.956336];[0.017862169102, 0.019239517185, 0.090612259412, -0.279844405154, 0.008704506750, -0.541403859276, 1.214616476254, -0.456657148002, 1.461504466613, -2.946363838127, 1.447998225120, 1.439877921674, 0.272243883431]
Xenon;Xe;Noble gas;sp3;54;0;54;1s^2 2s^2 2p^6 3s^2 3p^6 4s^2 3d^10 4p^6 5s^2 4d^10 5p^6;Noble gas;7S;-7232,138355835;0,446;5;1;3;2;10;[3, 4, 3, 3, 3, 3, 3, 3, 3, 3, 3];[59.845045, 46.464727, 25.986788, 22.364559, 13.517132, 10.630383, 8.943390, 4.862982, 3.343632, 2.100705, 0.956336];[0.002765095586, 0.012937826591, -0.148772514800, 0.530351910942, 1.622291130415, 0.752029156059, 0.542774918730, 0.014442122074, -0.004477468939, 0.000783928632, -0.000120799007]
Xenon;Xe;Noble gas;sp3;54;0;54;1s^2 2s^2 2p^6 3s^2 3p^6 4s^2 3d^10 4p^6 5s^2 4d^10 5p^6;Noble gas;7S;-7232,138355835;0,446;5;1;4;2;10;[3, 4, 3, 3, 3, 3, 3, 3, 3, 3, 3];[59.845045, 46.464727, 25.986788, 22.364559, 13.517132, 10.630383, 8.943390, 4.862982, 3.343632, 2.100705, 0.956336];[-0.002019430514, -0.009794838825, 0.140753294882, -0.349806727579, -0.292435421357, -1.535536888858, 0.537562852691, 2.289561758348, 1.175909708005, 0.079421235891, 0.000328876877]
Cesium;Cs;Alkali metal;Likely without hybridisation;55;0;55;1s^2 2s^2 2p^6 3s^2 3p^6 4s^2 3d^10 4p^6 5s^2 4d^10 5p^6 6s^1;Half orbital;2S;-7553,933536555;0,143;6;0;1;0;2;[1, 1, 2, 2, 3, 3, 3, 3, 3, 3, 3, 3, 3];[72.432562, 54.152961, 44.781947, 26.827713, 24.294310, 13.933326, 11.953711, 5.980958, 4.692356, 2.500713, 1.798027, 0.588383, 0.390475];[0.053403956806, 1.350795135067, 0.013927740848, 0.002328644052, -0.001306167646, 0.001076075100, -0.000931683895, 0.000299106168, -0.000219768788, 0.000064063874, -0.000030829856, 0.000005091169, -0.000002969848]
Cesium;Cs;Alkali metal;Likely without hybridisation;55;0;55;1s^2 2s^2 2p^6 3s^2 3p^6 4s^2 3d^10 4p^6 5s^2 4d^10 5p^6 6s^1;Half orbital;2S;-7553,933536555;0,143;6;0;2;0;2;[1, 1, 2, 2, 3, 3, 3, 3, 3, 3, 3, 3, 3];[72.432562, 54.152961, 44.781947, 26.827713, 24.294310, 13.933326, 11.953711, 5.980958, 4.692356, 2.500713, 1.798027, 0.588383, 0.390475];[0.014687739216, -0.489348722437, -0.341052025545, 1.377458293308, 0.402140677428, 0.037751299677, -0.021395212721, 0.002672863633, -0.001977777667, 0.000538249682, -0.000244093261, 0.000039597980, -0.000023193102]
Cesium;Cs;Alkali metal;Likely without hybridisation;55;0;55;1s^2 2s^2 2p^6 3s^2 3p^6 4s^2 3d^10 4p^6 5s^2 4d^10 5p^6 6s^1;Half orbital;2S;-7553,933536555;0,143;6;0;3;0;2;[1, 1, 2, 2, 3, 3, 3, 3, 3, 3, 3, 3, 3];[72.432562, 54.152961, 44.781947, 26.827713, 24.294310, 13.933326, 11.953711, 5.980958, 4.692356, 2.500713, 1.798027, 0.588383, 0.390475];[-0.006280522430, 0.219178353430, 0.166407964300, -0.664762822966, -0.537316442309, 0.695632276606, 1.071629236434, 0.052549488972, -0.024073308944, 0.004330746192, -0.001971130863, 0.000289065252, -0.000168149993]
Cesium;Cs;Alkali metal;Likely without hybridisation;55;0;55;1s^2 2s^2 2p^6 3s^2 3p^6 4s^2 3d^10 4p^6 5s^2 4d^10 5p^6 6s^1;Half orbital;2S;-7553,933536555;0,143;6;0;4;0;2;[1, 1, 2, 2, 3, 3, 3, 3, 3, 3, 3, 3, 3];[72.432562, 54.152961, 44.781947, 26.827713, 24.294310, 13.933326, 11.953711, 5.980958, 4.692356, 2.500713, 1.798027, 0.588383, 0.390475];[0.001155412480, -0.098392635810, -0.082299592577, 0.318762747009, 0.269128517875, 0.192108608790, -1.678279337116, 1.576789149340, 0.383664967185, 0.004651489828, 0.000593545432, -0.000042002143, 0.000020364675]
Cesium;Cs;Alkali metal;Likely without hybridisation;55;0;55;1s^2 2s^2 2p^6 3s^2 3p^6 4s^2 3d^10 4p^6 5s^2 4d^10 5p^6 6s^1;Half orbital;2S;-7553,933536555;0,143;6;0;5;0;2;[1, 1, 2, 2, 3, 3, 3, 3, 3, 3, 3, 3, 3];[72.432562, 54.152961, 44.781947, 26.827713, 24.294310, 13.933326, 11.953711, 5.980958, 4.692356, 2.500713, 1.798027, 0.588383, 0.390475];[-0.000843154126, 0.037206968877, 0.029689858107, -0.117025040916, -0.105062349813, -0.116752804805, 0.736952768471, -0.608994301083, -0.673207233568, 1.102793553601, 0.723360903344, 0.001080742004, 0.000113419928]
Cesium;Cs;Alkali metal;Likely without hybridisation;55;0;55;1s^2 2s^2 2p^6 3s^2 3p^6 4s^2 3d^10 4p^6 5s^2 4d^10 5p^6 6s^1;Half orbital;2S;-7553,933536555;0,143;6;0;6;0;1;[1, 1, 2, 2, 3, 3, 3, 3, 3, 3, 3, 3, 3];[72.432562, 54.152961, 44.781947, 26.827713, 24.294310, 13.933326, 11.953711, 5.980958, 4.692356, 2.500713, 1.798027, 0.588383, 0.390475];[-0.000018900000, -0.005722100000, -0.005131500000, 0.019427200000, 0.015822600000, 0.025331300000, -0.127233200000, 0.106806100000, 0.110915600000, -0.189977500000, -0.195643200000, 1.007837300000, 0.050206500000]
Cesium;Cs;Alkali metal;Likely without hybridisation;55;0;55;1s^2 2s^2 2p^6 3s^2 3p^6 4s^2 3d^10 4p^6 5s^2 4d^10 5p^6 6s^1;Half orbital;2S;-7553,933536555;0,143;6;0;2;1;6;[2, 2, 3, 4, 3, 3, 3, 4, 3, 3];[45.866789, 27.025862, 23.215568, 18.118816, 14.399860, 10.231415, 5.932205, 4.962671, 2.159681, 1.445617];[0.051562004035, 2.008263155416, 0.460159673385, 0.022789807618, -0.014259704538, 0.002170982759, -0.000911210184, 0.000191795047, -0.000047765050, 0.000019106020]
Cesium;Cs;Alkali metal;Likely without hybridisation;55;0;55;1s^2 2s^2 2p^6 3s^2 3p^6 4s^2 3d^10 4p^6 5s^2 4d^10 5p^6 6s^1;Half orbital;2S;-7553,933536555;0,143;6;0;3;1;6;[2, 2, 3, 4, 3, 3, 3, 4, 3, 3];[45.866789, 27.025862, 23.215568, 18.118816, 14.399860, 10.231415, 5.932205, 4.962671, 2.159681, 1.445617];[-0.018066946445, -0.965478874516, -0.796034196814, -0.957793355499, 3.238471123781, 0.905105076080, 0.008764519249, 0.000908515746, -0.000292714024, 0.000092100814]
Cesium;Cs;Alkali metal;Likely without hybridisation;55;0;55;1s^2 2s^2 2p^6 3s^2 3p^6 4s^2 3d^10 4p^6 5s^2 4d^10 5p^6 6s^1;Half orbital;2S;-7553,933536555;0,143;6;0;4;1;6;[2, 2, 3, 4, 3, 3, 3, 4, 3, 3];[45.866789, 27.025862, 23.215568, 18.118816, 14.399860, 10.231415, 5.932205, 4.962671, 2.159681, 1.445617];[0.009087117048, 0.430007679397, 0.551220924267, 0.963518547875, -2.327218563293, -1.168346349860, 2.662116720110, 0.684335504951, 0.023288768678, -0.004765972193]
Cesium;Cs;Alkali metal;Likely without hybridisation;55;0;55;1s^2 2s^2 2p^6 3s^2 3p^6 4s^2 3d^10 4p^6 5s^2 4d^10 5p^6 6s^1;Half orbital;2S;-7553,933536555;0,143;6;0;5;1;6;[2, 2, 3, 4, 3, 3, 3, 4, 3, 3];[45.866789, 27.025862, 23.215568, 18.118816, 14.399860, 10.231415, 5.932205, 4.962671, 2.159681, 1.445617];[-0.003792300020, -0.141325515251, -0.234675569348, -0.469583595273, 1.023450948258, 0.384897876294, -1.137875432307, -0.648769893682, 1.803651643375, 1.158225793090]
Cesium;Cs;Alkali metal;Likely without hybridisation;55;0;55;1s^2 2s^2 2p^6 3s^2 3p^6 4s^2 3d^10 4p^6 5s^2 4d^10 5p^6 6s^1;Half orbital;2S;-7553,933536555;0,143;6;0;3;2;10;[3, 3, 4, 4, 4, 4, 4];[32.852137, 18.354403, 14.523221, 10.312620, 7.919345, 5.157647, 3.330606];[0.023442596750, 1.379348516717, 1.510153286080, 0.532747968725, 0.004001546151, 0.003709351695, -0.000795945287]
Cesium;Cs;Alkali metal;Likely without hybridisation;55;0;55;1s^2 2s^2 2p^6 3s^2 3p^6 4s^2 3d^10 4p^6 5s^2 4d^10 5p^6 6s^1;Half orbital;2S;-7553,933536555;0,143;6;0;4;2;10;[3, 3, 4, 4, 4, 4, 4];[32.852137, 18.354403, 14.523221, 10.312620, 7.919345, 5.157647, 3.330606];[-0.008100174227, -0.610489086495, -0.650657286018, -0.372950805318, 1.373002774136, 2.029250334602, 0.414124292909]
Barium;Ba;Alkaline earth metal;Likely without hybridisation;56;0;56;1s^2 2s^2 2p^6 3s^2 3p^6 4s^2 3d^10 4p^6 5s^2 4d^10 5p^6 6s^2;Full orbital;1S;-7883,543708638;0,1915;6;0;1;0;2;[1, 1, 2, 2, 3, 3, 3, 3, 3, 3, 3, 3, 3];[73.408386, 55.121608, 45.589826, 27.288659, 24.735741, 14.154755, 12.256065, 6.196423, 5.035677, 2.516335, 1.862701, 0.807625, 0.594012];[0.055087295210, 1.349586548157, 0.013271970019, 0.002422406411, -0.001377161167, 0.001252427531, -0.001104783635, 0.000386363145, -0.000288499567, 0.000080185909, -0.000049073211, 0.000013859293, -0.000007778175]
Barium;Ba;Alkaline earth metal;Likely without hybridisation;56;0;56;1s^2 2s^2 2p^6 3s^2 3p^6 4s^2 3d^10 4p^6 5s^2 4d^10 5p^6 6s^2;Full orbital;1S;-7883,543708638;0,1915;6;0;2;0;2;[1, 1, 2, 2, 3, 3, 3, 3, 3, 3, 3, 3, 3];[73.408386, 55.121608, 45.589826, 27.288659, 24.735741, 14.154755, 12.256065, 6.196423, 5.035677, 2.516335, 1.862701, 0.807625, 0.594012];[0.015244515096, -0.490898841922, -0.341865056922, 1.385826194957, 0.394759896846, 0.039078963369, -0.023342301954, 0.003243498805, -0.002421416461, 0.000621546861, -0.000362321515, 0.000098994949, -0.000055154329]
Barium;Ba;Alkaline earth metal;Likely without hybridisation;56;0;56;1s^2 2s^2 2p^6 3s^2 3p^6 4s^2 3d^10 4p^6 5s^2 4d^10 5p^6 6s^2;Full orbital;1S;-7883,543708638;0,1915;6;0;3;0;2;[1, 1, 2, 2, 3, 3, 3, 3, 3, 3, 3, 3, 3];[73.408386, 55.121608, 45.589826, 27.288659, 24.735741, 14.154755, 12.256065, 6.196423, 5.035677, 2.516335, 1.862701, 0.807625, 0.594012];[-0.006452632221, 0.220520159258, 0.167700272653, -0.671766149948, -0.539092977386, 0.722126012062, 1.047474044524, 0.061355231139, -0.030241118554, 0.004849055463, -0.002820083265, 0.000711915107, -0.000393292792]
Barium;Ba;Alkaline earth metal;Likely without hybridisation;56;0;56;1s^2 2s^2 2p^6 3s^2 3p^6 4s^2 3d^10 4p^6 5s^2 4d^10 5p^6 6s^2;Full orbital;1S;-7883,543708638;0,1915;6;0;4;0;2;[1, 1, 2, 2, 3, 3, 3, 3, 3, 3, 3, 3, 3];[73.408386, 55.121608, 45.589826, 27.288659, 24.735741, 14.154755, 12.256065, 6.196423, 5.035677, 2.516335, 1.862701, 0.807625, 0.594012];[0.001268125301, -0.100093934725, -0.083619053831, 0.325120909764, 0.274034141880, 0.243099492995, -1.763987325800, 1.515473233338, 0.461942394969, 0.010563751047, -0.002399354730, 0.000439113311, -0.000224859956]
Barium;Ba;Alkaline earth metal;Likely without hybridisation;56;0;56;1s^2 2s^2 2p^6 3s^2 3p^6 4s^2 3d^10 4p^6 5s^2 4d^10 5p^6 6s^2;Full orbital;1S;-7883,543708638;0,1915;6;0;5;0;2;[1, 1, 2, 2, 3, 3, 3, 3, 3, 3, 3, 3, 3];[73.408386, 55.121608, 45.589826, 27.288659, 24.735741, 14.154755, 12.256065, 6.196423, 5.035677, 2.516335, 1.862701, 0.807625, 0.594012];[-0.000989242387, 0.039815061528, 0.031556337167, -0.125096099137, -0.112907699550, -0.146620995242, 0.813739473739, -0.534802536281, -0.826431191933, 1.420247304537, 0.424591034888, -0.004500734662, 0.002150170300]
Barium;Ba;Alkaline earth metal;Likely without hybridisation;56;0;56;1s^2 2s^2 2p^6 3s^2 3p^6 4s^2 3d^10 4p^6 5s^2 4d^10 5p^6 6s^2;Full orbital;1S;-7883,543708638;0,1915;6;0;6;0;2;[1, 1, 2, 2, 3, 3, 3, 3, 3, 3, 3, 3, 3];[73.408386, 55.121608, 45.589826, 27.288659, 24.735741, 14.154755, 12.256065, 6.196423, 5.035677, 2.516335, 1.862701, 0.807625, 0.594012];[0.000105076068, -0.010712243471, -0.009096928740, 0.035201755466, 0.030072827140, 0.049790923997, -0.238115238716, 0.153389421352, 0.252006210011, -0.432077032959, -0.317777747263, 0.968597131611, 0.621181852143]
Barium;Ba;Alkaline earth metal;Likely without hybridisation;56;0;56;1s^2 2s^2 2p^6 3s^2 3p^6 4s^2 3d^10 4p^6 5s^2 4d^10 5p^6 6s^2;Full orbital;1S;-7883,543708638;0,1915;6;0;2;1;6;[2, 2, 3, 4, 3, 3, 3, 4, 3, 3];[46.966097, 27.608616, 23.743389, 18.568484, 14.716154, 10.415319, 6.176644, 5.202768, 2.231317, 1.527034];[0.048899163735, 2.004304290093, 0.466430857025, 0.021765675956, -0.012697909878, 0.001900069193, -0.000901902123, 0.000176608210, -0.000039926683, 0.000016411581]
Barium;Ba;Alkaline earth metal;Likely without hybridisation;56;0;56;1s^2 2s^2 2p^6 3s^2 3p^6 4s^2 3d^10 4p^6 5s^2 4d^10 5p^6 6s^2;Full orbital;1S;-7883,543708638;0,1915;6;0;3;1;6;[2, 2, 3, 4, 3, 3, 3, 4, 3, 3];[46.966097, 27.608616, 23.743389, 18.568484, 14.716154, 10.415319, 6.176644, 5.202768, 2.231317, 1.527034];[-0.017192233658, -0.966940729994, -0.806128788993, -0.959844558209, 3.276225109186, 0.878039439168, 0.004406632047, 0.002020094191, -0.000521986264, 0.000196204128]
Barium;Ba;Alkaline earth metal;Likely without hybridisation;56;0;56;1s^2 2s^2 2p^6 3s^2 3p^6 4s^2 3d^10 4p^6 5s^2 4d^10 5p^6 6s^2;Full orbital;1S;-7883,543708638;0,1915;6;0;4;1;6;[2, 2, 3, 4, 3, 3, 3, 4, 3, 3];[46.966097, 27.608616, 23.743389, 18.568484, 14.716154, 10.415319, 6.176644, 5.202768, 2.231317, 1.527034];[0.008575418641, 0.436939980318, 0.549516324355, 0.931099551129, -2.309158230470, -1.230392659892, 2.689723449307, 0.717957936007, 0.024255092382, -0.006212885784]
Barium;Ba;Alkaline earth metal;Likely without hybridisation;56;0;56;1s^2 2s^2 2p^6 3s^2 3p^6 4s^2 3d^10 4p^6 5s^2 4d^10 5p^6 6s^2;Full orbital;1S;-7883,543708638;0,1915;6;0;5;1;6;[2, 2, 3, 4, 3, 3, 3, 4, 3, 3];[46.966097, 27.608616, 23.743389, 18.568484, 14.716154, 10.415319, 6.176644, 5.202768, 2.231317, 1.527034];[-0.003768784918, -0.153834814418, -0.244946524789, -0.473013615760, 1.062005181963, 0.444455259797, -1.234618519596, -0.743215604541, 2.217345476135, 0.795857098705]
Barium;Ba;Alkaline earth metal;Likely without hybridisation;56;0;56;1s^2 2s^2 2p^6 3s^2 3p^6 4s^2 3d^10 4p^6 5s^2 4d^10 5p^6 6s^2;Full orbital;1S;-7883,543708638;0,1915;6;0;3;2;10;[3, 3, 4, 4, 4, 4, 4];[33.450500, 18.748779, 14.846820, 10.453672, 8.414827, 5.487808, 3.614287];[0.023241475891, 1.386047485712, 1.526175914528, 0.522835493172, -0.014319425701, 0.005151350308, -0.001006869207]
Barium;Ba;Alkaline earth metal;Likely without hybridisation;56;0;56;1s^2 2s^2 2p^6 3s^2 3p^6 4s^2 3d^10 4p^6 5s^2 4d^10 5p^6 6s^2;Full orbital;1S;-7883,543708638;0,1915;6;0;4;2;10;[3, 3, 4, 4, 4, 4, 4];[33.450500, 18.748779, 14.846820, 10.453672, 8.414827, 5.487808, 3.614287];[-0.008102387821, -0.627805718962, -0.671075796642, -0.471755538355, 1.374292667194, 2.085308346911, 0.455417314596]
Lanthanum;La;Lanthanide;Likely without hybridisation;57;0;57;1s^2 2s^2 2p^6 3s^2 3p^6 4s^2 3d^10 4p^6 5s^2 4d^10 5p^6 6s^2 4f^1;No special;2S;-8221,066556283;0,2063;5;2;1;0;2;[1, 1, 2, 2, 3, 3, 3, 3, 3, 3, 3, 3, 3];[74.686053, 56.122632, 46.442201, 27.670889, 25.126010, 14.473285, 12.560364, 6.313598, 5.148584, 2.721675, 2.038687, 0.883413, 0.635998];[0.054401684475, 1.350307372810, 0.013215825740, 0.002385071173, -0.001393990308, 0.001320592625, -0.001165453397, 0.000429213816, -0.000337431356, 0.000102530483, -0.000059679812, 0.000014142136, -0.000007495332]
Lanthanum;La;Lanthanide;Likely without hybridisation;57;0;57;1s^2 2s^2 2p^6 3s^2 3p^6 4s^2 3d^10 4p^6 5s^2 4d^10 5p^6 6s^2 4f^1;No special;2S;-8221,066556283;0,2063;5;2;2;0;2;[1, 1, 2, 2, 3, 3, 3, 3, 3, 3, 3, 3, 3];[74.686053, 56.122632, 46.442201, 27.670889, 25.126010, 14.473285, 12.560364, 6.313598, 5.148584, 2.721675, 2.038687, 0.883413, 0.635998];[0.015338560297, -0.491427333531, -0.342076199006, 1.401266578631, 0.378397021665, 0.038123379265, -0.022947453527, 0.003299077398, -0.002588152240, 0.000730865569, -0.000403899393, 0.000092065303, -0.000048790368]
Lanthanum;La;Lanthanide;Likely without hybridisation;57;0;57;1s^2 2s^2 2p^6 3s^2 3p^6 4s^2 3d^10 4p^6 5s^2 4d^10 5p^6 6s^2 4f^1;No special;2S;-8221,066556283;0,2063;5;2;3;0;2;[1, 1, 2, 2, 3, 3, 3, 3, 3, 3, 3, 3, 3];[74.686053, 56.122632, 46.442201, 27.670889, 25.126010, 14.473285, 12.560364, 6.313598, 5.148584, 2.721675, 2.038687, 0.883413, 0.635998];[-0.006334545389, 0.221243388074, 0.168983247197, -0.682986520352, -0.538442721990, 0.718778709981, 1.057968640528, 0.065351232981, -0.034664071470, 0.006244459985, -0.003415750017, 0.000710783736, -0.000372786695]
Lanthanum;La;Lanthanide;Likely without hybridisation;57;0;57;1s^2 2s^2 2p^6 3s^2 3p^6 4s^2 3d^10 4p^6 5s^2 4d^10 5p^6 6s^2 4f^1;No special;2S;-8221,066556283;0,2063;5;2;4;0;2;[1, 1, 2, 2, 3, 3, 3, 3, 3, 3, 3, 3, 3];[74.686053, 56.122632, 46.442201, 27.670889, 25.126010, 14.473285, 12.560364, 6.313598, 5.148584, 2.721675, 2.038687, 0.883413, 0.635998];[0.001275196369, -0.101483258129, -0.084918291830, 0.333517378527, 0.277201273153, 0.273889467833, -1.823121534539, 1.636347197885, 0.352843455385, 0.012521588303, -0.002750928222, 0.000447740014, -0.000216798939]
Lanthanum;La;Lanthanide;Likely without hybridisation;57;0;57;1s^2 2s^2 2p^6 3s^2 3p^6 4s^2 3d^10 4p^6 5s^2 4d^10 5p^6 6s^2 4f^1;No special;2S;-8221,066556283;0,2063;5;2;5;0;2;[1, 1, 2, 2, 3, 3, 3, 3, 3, 3, 3, 3, 3];[74.686053, 56.122632, 46.442201, 27.670889, 25.126010, 14.473285, 12.560364, 6.313598, 5.148584, 2.721675, 2.038687, 0.883413, 0.635998];[-0.000989383808, 0.041551150097, 0.033143367626, -0.132490597591, -0.117688589919, -0.169920870789, 0.873014255307, -0.578750778367, -0.897470533284, 1.385136200160, 0.532186524033, -0.001322572524, 0.000826183563]
Lanthanum;La;Lanthanide;Likely without hybridisation;57;0;57;1s^2 2s^2 2p^6 3s^2 3p^6 4s^2 3d^10 4p^6 5s^2 4d^10 5p^6 6s^2 4f^1;No special;2S;-8221,066556283;0,2063;5;2;6;0;2;[1, 1, 2, 2, 3, 3, 3, 3, 3, 3, 3, 3, 3];[74.686053, 56.122632, 46.442201, 27.670889, 25.126010, 14.473285, 12.560364, 6.313598, 5.148584, 2.721675, 2.038687, 0.883413, 0.635998];[0.000123460844, -0.011502364588, -0.009740395911, 0.038134127288, 0.032293001011, 0.057850951353, -0.261547908916, 0.166158638449, 0.290344125474, -0.437614244741, -0.361327039703, 0.902001107852, 0.696392416395]
Lanthanum;La;Lanthanide;Likely without hybridisation;57;0;57;1s^2 2s^2 2p^6 3s^2 3p^6 4s^2 3d^10 4p^6 5s^2 4d^10 5p^6 6s^2 4f^1;No special;2S;-8221,066556283;0,2063;5;2;2;1;6;[2, 2, 3, 4, 3, 3, 3, 4, 3, 3];[47.922059, 28.166523, 24.260607, 19.029118, 15.044910, 10.575140, 6.469568, 5.487832, 2.366537, 1.608197];[0.047385379074, 2.002435574369, 0.469631360323, 0.023611121529, -0.014886528963, 0.002391681785, -0.001100310792, 0.000228782342, -0.000046050407, 0.000019106020]
Lanthanum;La;Lanthanide;Likely without hybridisation;57;0;57;1s^2 2s^2 2p^6 3s^2 3p^6 4s^2 3d^10 4p^6 5s^2 4d^10 5p^6 6s^2 4f^1;No special;2S;-8221,066556283;0,2063;5;2;3;1;6;[2, 2, 3, 4, 3, 3, 3, 4, 3, 3];[47.922059, 28.166523, 24.260607, 19.029118, 15.044910, 10.575140, 6.469568, 5.487832, 2.366537, 1.608197];[-0.016764552749, -0.969403202033, -0.821251938665, -0.978528286171, 3.338454641050, 0.850938039704, -0.002591315199, 0.003851087774, -0.000817149778, 0.000290999381]
Lanthanum;La;Lanthanide;Likely without hybridisation;57;0;57;1s^2 2s^2 2p^6 3s^2 3p^6 4s^2 3d^10 4p^6 5s^2 4d^10 5p^6 6s^2 4f^1;No special;2S;-8221,066556283;0,2063;5;2;4;1;6;[2, 2, 3, 4, 3, 3, 3, 4, 3, 3];[47.922059, 28.166523, 24.260607, 19.029118, 15.044910, 10.575140, 6.469568, 5.487832, 2.366537, 1.608197];[0.008257719821, 0.444086856540, 0.549930043173, 0.903758346620, -2.297776431431, -1.308382453710, 2.687399128490, 0.798565989412, 0.026074818312, -0.006378226341]
Lanthanum;La;Lanthanide;Likely without hybridisation;57;0;57;1s^2 2s^2 2p^6 3s^2 3p^6 4s^2 3d^10 4p^6 5s^2 4d^10 5p^6 6s^2 4f^1;No special;2S;-8221,066556283;0,2063;5;2;5;1;6;[2, 2, 3, 4, 3, 3, 3, 4, 3, 3];[47.922059, 28.166523, 24.260607, 19.029118, 15.044910, 10.575140, 6.469568, 5.487832, 2.366537, 1.608197];[-0.003868234202, -0.162352670050, -0.262923574960, -0.505267516897, 1.144451822368, 0.470546979589, -1.257037719416, -0.871763111600, 2.350868141810, 0.722655322487]