Element name;Symbol;clasificacion;Possible hybridization;Z;Q;N;Complete electronic configuration;Special configuration;Config;Energy;Ionization;Valence_n;Valence_l;n;l;mz;N_list;A_list;C_list
Rhenium;Re;Transition metal;sp3d;75;0;75;1s^2 2s^2 2p^6 3s^2 3p^6 4s^2 3d^10 4p^6 5s^2 4d^10 5p^6 6s^2 4f^14 5d^5;Half orbital;1D;-15784,532983147;0,2893;5;2;2;1;6;[2, 2, 3, 4, 3, 3, 3, 4, 3, 3];[67.926990, 39.178277, 34.698572, 27.543233, 19.862335, 13.806206, 9.729731, 8.070798, 3.490619, 2.324200];[0.021343138976, 1.878110987627, 0.612716833954, 0.040973104825, -0.021087412247, 0.006214355477, -0.002644959024, 0.000533743815, -0.000083527600, 0.000033802958]
Rhenium;Re;Transition metal;sp3d;75;0;75;1s^2 2s^2 2p^6 3s^2 3p^6 4s^2 3d^10 4p^6 5s^2 4d^10 5p^6 6s^2 4f^14 5d^5;Half orbital;1D;-15784,532983147;0,2893;5;2;3;1;6;[2, 2, 3, 4, 3, 3, 3, 4, 3, 3];[67.926990, 39.178277, 34.698572, 27.543233, 19.862335, 13.806206, 9.729731, 8.070798, 3.490619, 2.324200];[-0.007326423821, -0.949845741079, -0.679678780001, -0.270473392245, 2.785412031262, 0.541691184423, -0.037373579648, 0.008686380526, -0.001118192068, 0.000336314942]
Rhenium;Re;Transition metal;sp3d;75;0;75;1s^2 2s^2 2p^6 3s^2 3p^6 4s^2 3d^10 4p^6 5s^2 4d^10 5p^6 6s^2 4f^14 5d^5;Half orbital;1D;-15784,532983147;0,2893;5;2;4;1;6;[2, 2, 3, 4, 3, 3, 3, 4, 3, 3];[67.926990, 39.178277, 34.698572, 27.543233, 19.862335, 13.806206, 9.729731, 8.070798, 3.490619, 2.324200];[0.004122736186, 0.457256048244, 0.476165374212, 0.496443964945, -2.328207667251, -1.160298306361, 2.885263276085, 0.925442699517, 0.024143395650, -0.004704245051]
Rhenium;Re;Transition metal;sp3d;75;0;75;1s^2 2s^2 2p^6 3s^2 3p^6 4s^2 3d^10 4p^6 5s^2 4d^10 5p^6 6s^2 4f^14 5d^5;Half orbital;1D;-15784,532983147;0,2893;5;2;5;1;6;[2, 2, 3, 4, 3, 3, 3, 4, 3, 3];[67.926990, 39.178277, 34.698572, 27.543233, 19.862335, 13.806206, 9.729731, 8.070798, 3.490619, 2.324200];[-0.001704354963, -0.169141920770, -0.200221781473, -0.252903937167, 1.036422711089, 0.427147900122, -1.344443596754, -0.934146716369, 2.257761322044, 0.828155580556]
Rhenium;Re;Transition metal;sp3d;75;0;75;1s^2 2s^2 2p^6 3s^2 3p^6 4s^2 3d^10 4p^6 5s^2 4d^10 5p^6 6s^2 4f^14 5d^5;Half orbital;1D;-15784,532983147;0,2893;5;2;3;2;10;[3, 3, 4, 4, 4, 4, 4, 4, 4];[40.024199, 24.780256, 20.314071, 13.074404, 9.341177, 6.767067, 4.115949, 2.531393, 1.525586];[0.049008662950, 1.696350408305, 1.440484830721, 0.239244013747, -0.053556334453, 0.020484285999, -0.004442367657, 0.001562481392, -0.000420266701]
Rhenium;Re;Transition metal;sp3d;75;0;75;1s^2 2s^2 2p^6 3s^2 3p^6 4s^2 3d^10 4p^6 5s^2 4d^10 5p^6 6s^2 4f^14 5d^5;Half orbital;1D;-15784,532983147;0,2893;5;2;4;2;10;[3, 3, 4, 4, 4, 4, 4, 4, 4];[40.024199, 24.780256, 20.314071, 13.074404, 9.341177, 6.767067, 4.115949, 2.531393, 1.525586];[-0.020952303093, -0.861555591502, -0.816267980675, 0.950261590831, 1.897352998307, 0.829222567338, 0.038058011640, -0.003528469413, 0.000622968699]
Rhenium;Re;Transition metal;sp3d;75;0;75;1s^2 2s^2 2p^6 3s^2 3p^6 4s^2 3d^10 4p^6 5s^2 4d^10 5p^6 6s^2 4f^14 5d^5;Half orbital;1D;-15784,532983147;0,2893;5;2;5;2;5;[3, 3, 4, 4, 4, 4, 4, 4, 4];[40.024199, 24.780256, 20.314071, 13.074404, 9.341177, 6.767067, 4.115949, 2.531393, 1.525586];[0.003948448835, 0.166437024162, 0.162982299137, -0.233139379145, -0.410078096564, -0.257747978058, 0.843107642062, 1.294984110115, 0.512687454736]
Rhenium;Re;Transition metal;sp3d;75;0;75;1s^2 2s^2 2p^6 3s^2 3p^6 4s^2 3d^10 4p^6 5s^2 4d^10 5p^6 6s^2 4f^14 5d^5;Half orbital;1D;-15784,532983147;0,2893;5;2;4;3;14;[4, 4, 4, 4, 4, 4];[24.113043, 14.483275, 9.678188, 6.537670, 4.313282, 2.781860];[0.079398343913, 0.824167015104, 1.407248942304, 1.364775518478, 0.602636577034, 0.065979638027]
Osmium;Os;Transition metal;sp3d;76;0;76;1s^2 2s^2 2p^6 3s^2 3p^6 4s^2 3d^10 4p^6 5s^2 4d^10 5p^6 6s^2 4f^14 5d^6;No special;1S;-16290,648385123;0,3199;5;2;1;0;2;[1, 1, 2, 2, 3, 3, 3, 3, 3, 3, 3, 3, 3];[94.092123, 74.612868, 61.895874, 35.501252, 32.311264, 22.659050, 18.132147, 9.140779, 7.303703, 4.343471, 3.121391, 1.290204, 0.828961];[0.079241497170, 1.331016368448, 0.005684714257, 0.003119472276, -0.002491137190, 0.001898157443, -0.001139997553, 0.000473902965, -0.000390888629, 0.000128269170, -0.000056144278, 0.000009758074, -0.000004666905]
Osmium;Os;Transition metal;sp3d;76;0;76;1s^2 2s^2 2p^6 3s^2 3p^6 4s^2 3d^10 4p^6 5s^2 4d^10 5p^6 6s^2 4f^14 5d^6;No special;1S;-16290,648385123;0,3199;5;2;2;0;2;[1, 1, 2, 2, 3, 3, 3, 3, 3, 3, 3, 3, 3];[94.092123, 74.612868, 61.895874, 35.501252, 32.311264, 22.659050, 18.132147, 9.140779, 7.303703, 4.343471, 3.121391, 1.290204, 0.828961];[0.025801195075, -0.516104935930, -0.351567551909, 1.615529408561, 0.167355911651, 0.011344114091, -0.003244064491, 0.000110450079, -0.000225425642, 0.000101257691, -0.000036769553, 0.000006646804, -0.000003111270]
Osmium;Os;Transition metal;sp3d;76;0;76;1s^2 2s^2 2p^6 3s^2 3p^6 4s^2 3d^10 4p^6 5s^2 4d^10 5p^6 6s^2 4f^14 5d^6;No special;1S;-16290,648385123;0,3199;5;2;3;0;2;[1, 1, 2, 2, 3, 3, 3, 3, 3, 3, 3, 3, 3];[94.092123, 74.612868, 61.895874, 35.501252, 32.311264, 22.659050, 18.132147, 9.140779, 7.303703, 4.343471, 3.121391, 1.290204, 0.828961];[-0.008642824765, 0.238596071327, 0.188069473435, -0.837754375663, -0.623582621086, 0.577300078094, 1.398161389912, 0.061062771775, -0.032536528587, 0.006717373000, -0.002691106988, 0.000402768023, -0.000184272027]
Osmium;Os;Transition metal;sp3d;76;0;76;1s^2 2s^2 2p^6 3s^2 3p^6 4s^2 3d^10 4p^6 5s^2 4d^10 5p^6 6s^2 4f^14 5d^6;No special;1S;-16290,648385123;0,3199;5;2;4;0;2;[1, 1, 2, 2, 3, 3, 3, 3, 3, 3, 3, 3, 3];[94.092123, 74.612868, 61.895874, 35.501252, 32.311264, 22.659050, 18.132147, 9.140779, 7.303703, 4.343471, 3.121391, 1.290204, 0.828961];[0.001845124435, -0.113840514816, -0.098575069359, 0.427478010454, 0.331210513364, 0.149990217633, -1.888355387795, 1.769252301471, 0.262850965293, 0.013141438107, -0.001231355749, 0.000262902301, -0.000109035866]
Osmium;Os;Transition metal;sp3d;76;0;76;1s^2 2s^2 2p^6 3s^2 3p^6 4s^2 3d^10 4p^6 5s^2 4d^10 5p^6 6s^2 4f^14 5d^6;No special;1S;-16290,648385123;0,3199;5;2;5;0;2;[1, 1, 2, 2, 3, 3, 3, 3, 3, 3, 3, 3, 3];[94.092123, 74.612868, 61.895874, 35.501252, 32.311264, 22.659050, 18.132147, 9.140779, 7.303703, 4.343471, 3.121391, 1.290204, 0.828961];[-0.001356372228, 0.047372901648, 0.039411020714, -0.173306073793, -0.142838398227, -0.108165700054, 0.912279187759, -0.668262011583, -0.982232130251, 1.199165561073, 0.843457191853, 0.004792345499, -0.001176201420]
Osmium;Os;Transition metal;sp3d;76;0;76;1s^2 2s^2 2p^6 3s^2 3p^6 4s^2 3d^10 4p^6 5s^2 4d^10 5p^6 6s^2 4f^14 5d^6;No special;1S;-16290,648385123;0,3199;5;2;6;0;2;[1, 1, 2, 2, 3, 3, 3, 3, 3, 3, 3, 3, 3];[94.092123, 74.612868, 61.895874, 35.501252, 32.311264, 22.659050, 18.132147, 9.140779, 7.303703, 4.343471, 3.121391, 1.290204, 0.828961];[0.000270963319, -0.012281454840, -0.010466311732, 0.045668632884, 0.036884528184, 0.032185237938, -0.246428410300, 0.164939162094, 0.318088449983, -0.380060419657, -0.380421326958, 0.783257797458, 0.802946761516]
Osmium;Os;Transition metal;sp3d;76;0;76;1s^2 2s^2 2p^6 3s^2 3p^6 4s^2 3d^10 4p^6 5s^2 4d^10 5p^6 6s^2 4f^14 5d^6;No special;1S;-16290,648385123;0,3199;5;2;2;1;6;[2, 2, 3, 4, 3, 3, 3, 4, 3, 3];[68.850122, 39.720013, 35.210952, 28.070224, 20.211146, 14.001487, 10.007660, 8.311499, 3.613318, 2.404538];[0.021057038574, 1.879559615861, 0.610803047618, 0.040762693657, -0.020541665932, 0.006272653333, -0.002789968817, 0.000546726111, -0.000080833162, 0.000033313061]
Osmium;Os;Transition metal;sp3d;76;0;76;1s^2 2s^2 2p^6 3s^2 3p^6 4s^2 3d^10 4p^6 5s^2 4d^10 5p^6 6s^2 4f^14 5d^6;No special;1S;-16290,648385123;0,3199;5;2;3;1;6;[2, 2, 3, 4, 3, 3, 3, 4, 3, 3];[68.850122, 39.720013, 35.210952, 28.070224, 20.211146, 14.001487, 10.007660, 8.311499, 3.613318, 2.404538];[-0.007269840608, -0.952155120009, -0.685700850534, -0.278622354721, 2.795138465132, 0.552212967613, -0.044523885157, 0.009556194334, -0.001226459514, 0.000354931064]
Osmium;Os;Transition metal;sp3d;76;0;76;1s^2 2s^2 2p^6 3s^2 3p^6 4s^2 3d^10 4p^6 5s^2 4d^10 5p^6 6s^2 4f^14 5d^6;No special;1S;-16290,648385123;0,3199;5;2;4;1;6;[2, 2, 3, 4, 3, 3, 3, 4, 3, 3];[68.850122, 39.720013, 35.210952, 28.070224, 20.211146, 14.001487, 10.007660, 8.311499, 3.613318, 2.404538];[0.004022307107, 0.460750490311, 0.478066423201, 0.486087767262, -2.309061230676, -1.246388072861, 2.906638013479, 0.973083560371, 0.025565079496, -0.004797325661]
Osmium;Os;Transition metal;sp3d;76;0;76;1s^2 2s^2 2p^6 3s^2 3p^6 4s^2 3d^10 4p^6 5s^2 4d^10 5p^6 6s^2 4f^14 5d^6;No special;1S;-16290,648385123;0,3199;5;2;5;1;6;[2, 2, 3, 4, 3, 3, 3, 4, 3, 3];[68.850122, 39.720013, 35.210952, 28.070224, 20.211146, 14.001487, 10.007660, 8.311499, 3.613318, 2.404538];[-0.001679370168, -0.173694787355, -0.205198654732, -0.254528683713, 1.052924923486, 0.459194329478, -1.358892891798, -1.010439993591, 2.303042834378, 0.816061469900]
Osmium;Os;Transition metal;sp3d;76;0;76;1s^2 2s^2 2p^6 3s^2 3p^6 4s^2 3d^10 4p^6 5s^2 4d^10 5p^6 6s^2 4f^14 5d^6;No special;1S;-16290,648385123;0,3199;5;2;3;2;10;[3, 3, 4, 4, 4, 4, 4, 4, 4];[40.756046, 25.241086, 20.717645, 13.383221, 9.576954, 6.964384, 4.270338, 2.617713, 1.568701];[0.046717592785, 1.686440462573, 1.445733262953, 0.246651649166, -0.055174788159, 0.021147099397, -0.004566961397, 0.001525482743, -0.000410147413]
Osmium;Os;Transition metal;sp3d;76;0;76;1s^2 2s^2 2p^6 3s^2 3p^6 4s^2 3d^10 4p^6 5s^2 4d^10 5p^6 6s^2 4f^14 5d^6;No special;1S;-16290,648385123;0,3199;5;2;4;2;10;[3, 3, 4, 4, 4, 4, 4, 4, 4];[40.756046, 25.241086, 20.717645, 13.383221, 9.576954, 6.964384, 4.270338, 2.617713, 1.568701];[-0.020034610116, -0.862483403768, -0.828233090658, 0.919940407714, 1.924711127256, 0.830486845946, 0.037576396752, -0.002655048323, 0.000765271194]
Osmium;Os;Transition metal;sp3d;76;0;76;1s^2 2s^2 2p^6 3s^2 3p^6 4s^2 3d^10 4p^6 5s^2 4d^10 5p^6 6s^2 4f^14 5d^6;No special;1S;-16290,648385123;0,3199;5;2;5;2;6;[3, 3, 4, 4, 4, 4, 4, 4, 4];[40.756046, 25.241086, 20.717645, 13.383221, 9.576954, 6.964384, 4.270338, 2.617713, 1.568701];[0.004274604550, 0.189713225528, 0.188293991171, -0.258437089547, -0.475398683922, -0.307990267043, 0.987725140360, 1.402481316822, 0.539956455787]
Osmium;Os;Transition metal;sp3d;76;0;76;1s^2 2s^2 2p^6 3s^2 3p^6 4s^2 3d^10 4p^6 5s^2 4d^10 5p^6 6s^2 4f^14 5d^6;No special;1S;-16290,648385123;0,3199;5;2;4;3;14;[4, 4, 4, 4, 4, 4];[24.530200, 14.751454, 9.837503, 6.692180, 4.453285, 2.851061];[0.080017588211, 0.848218014621, 1.438150542329, 1.347259697753, 0.553576713710, 0.049593049502]
Iridium;Ir;Transition metal;sp3d;77;0;77;1s^2 2s^2 2p^6 3s^2 3p^6 4s^2 3d^10 4p^6 5s^2 4d^10 5p^6 6s^2 4f^14 5d^7;No special;4S;-16806,11293237;0,3382;5;2;1;0;2;[1, 1, 2, 2, 3, 3, 3, 3, 3, 3, 3, 3, 3];[95.032583, 75.575655, 62.684408, 35.958786, 32.687170, 23.004698, 18.395302, 9.285849, 7.566137, 4.491834, 3.226227, 1.331963, 0.847928];[0.081384879245, 1.329144656798, 0.005320695686, 0.003151009238, -0.002541058929, 0.001962928425, -0.001178747004, 0.000536976890, -0.000448871385, 0.000133360339, -0.000057275649, 0.000009758074, -0.000004525483]
Iridium;Ir;Transition metal;sp3d;77;0;77;1s^2 2s^2 2p^6 3s^2 3p^6 4s^2 3d^10 4p^6 5s^2 4d^10 5p^6 6s^2 4f^14 5d^7;No special;4S;-16806,11293237;0,3382;5;2;2;0;2;[1, 1, 2, 2, 3, 3, 3, 3, 3, 3, 3, 3, 3];[95.032583, 75.575655, 62.684408, 35.958786, 32.687170, 23.004698, 18.395302, 9.285849, 7.566137, 4.491834, 3.226227, 1.331963, 0.847928];[0.026637560975, -0.517682066895, -0.352317226518, 1.620958433006, 0.163254409477, 0.010496151639, -0.002960231829, 0.000072973420, -0.000199686955, 0.000089661140, -0.000030971277, 0.000005374012, -0.000002545584]
Iridium;Ir;Transition metal;sp3d;77;0;77;1s^2 2s^2 2p^6 3s^2 3p^6 4s^2 3d^10 4p^6 5s^2 4d^10 5p^6 6s^2 4f^14 5d^7;No special;4S;-16806,11293237;0,3382;5;2;3;0;2;[1, 1, 2, 2, 3, 3, 3, 3, 3, 3, 3, 3, 3];[95.032583, 75.575655, 62.684408, 35.958786, 32.687170, 23.004698, 18.395302, 9.285849, 7.566137, 4.491834, 3.226227, 1.331963, 0.847928];[-0.008833460753, 0.239419143621, 0.189114152993, -0.842602016912, -0.631212303255, 0.597454459836, 1.388346040682, 0.064492946770, -0.035887224780, 0.006531262495, -0.002566231930, 0.000368685476, -0.000166170094]
Iridium;Ir;Transition metal;sp3d;77;0;77;1s^2 2s^2 2p^6 3s^2 3p^6 4s^2 3d^10 4p^6 5s^2 4d^10 5p^6 6s^2 4f^14 5d^7;No special;4S;-16806,11293237;0,3382;5;2;4;0;2;[1, 1, 2, 2, 3, 3, 3, 3, 3, 3, 3, 3, 3];[95.032583, 75.575655, 62.684408, 35.958786, 32.687170, 23.004698, 18.395302, 9.285849, 7.566137, 4.491834, 3.226227, 1.331963, 0.847928];[0.001988949954, -0.114733166416, -0.099286135939, 0.431063607520, 0.338063933709, 0.137706924316, -1.894197504021, 1.784928293124, 0.250344084811, 0.017638354393, -0.002246902508, 0.000385090353, -0.000160088975]
Iridium;Ir;Transition metal;sp3d;77;0;77;1s^2 2s^2 2p^6 3s^2 3p^6 4s^2 3d^10 4p^6 5s^2 4d^10 5p^6 6s^2 4f^14 5d^7;No special;4S;-16806,11293237;0,3382;5;2;5;0;2;[1, 1, 2, 2, 3, 3, 3, 3, 3, 3, 3, 3, 3];[95.032583, 75.575655, 62.684408, 35.958786, 32.687170, 23.004698, 18.395302, 9.285849, 7.566137, 4.491834, 3.226227, 1.331963, 0.847928];[-0.001533431766, 0.048499039908, 0.040056326362, -0.176716166956, -0.148745851120, -0.101697794327, 0.924513832130, -0.612200040387, -1.079996148133, 1.205439436700, 0.861909001887, 0.005290290094, -0.001316774248]
Iridium;Ir;Transition metal;sp3d;77;0;77;1s^2 2s^2 2p^6 3s^2 3p^6 4s^2 3d^10 4p^6 5s^2 4d^10 5p^6 6s^2 4f^14 5d^7;No special;4S;-16806,11293237;0,3382;5;2;6;0;2;[1, 1, 2, 2, 3, 3, 3, 3, 3, 3, 3, 3, 3];[95.032583, 75.575655, 62.684408, 35.958786, 32.687170, 23.004698, 18.395302, 9.285849, 7.566137, 4.491834, 3.226227, 1.331963, 0.847928];[0.000327107597, -0.012562600496, -0.010589489734, 0.046410529319, 0.038463497627, 0.030183277219, -0.248917001905, 0.143130009063, 0.354081316516, -0.389247150958, -0.379723412565, 0.774922846986, 0.812057266707]
Iridium;Ir;Transition metal;sp3d;77;0;77;1s^2 2s^2 2p^6 3s^2 3p^6 4s^2 3d^10 4p^6 5s^2 4d^10 5p^6 6s^2 4f^14 5d^7;No special;4S;-16806,11293237;0,3382;5;2;2;1;6;[2, 2, 3, 4, 3, 3, 3, 4, 3, 3];[70.152737, 40.345105, 35.784105, 28.613630, 20.480824, 14.033605, 10.321772, 8.552420, 3.740117, 2.489419];[0.019966770689, 1.873412866300, 0.617601116501, 0.040300964840, -0.019014654026, 0.006151648540, -0.002985193150, 0.000537907948, -0.000073239743, 0.000030618622]
Iridium;Ir;Transition metal;sp3d;77;0;77;1s^2 2s^2 2p^6 3s^2 3p^6 4s^2 3d^10 4p^6 5s^2 4d^10 5p^6 6s^2 4f^14 5d^7;No special;4S;-16806,11293237;0,3382;5;2;3;1;6;[2, 2, 3, 4, 3, 3, 3, 4, 3, 3];[70.152737, 40.345105, 35.784105, 28.613630, 20.480824, 14.033605, 10.321772, 8.552420, 3.740117, 2.489419];[-0.006906581279, -0.950325351171, -0.686551313372, -0.265533506281, 2.801110566074, 0.544839268640, -0.060462714913, 0.011095698637, -0.001398658643, 0.000391918359]
Iridium;Ir;Transition metal;sp3d;77;0;77;1s^2 2s^2 2p^6 3s^2 3p^6 4s^2 3d^10 4p^6 5s^2 4d^10 5p^6 6s^2 4f^14 5d^7;No special;4S;-16806,11293237;0,3382;5;2;4;1;6;[2, 2, 3, 4, 3, 3, 3, 4, 3, 3];[70.152737, 40.345105, 35.784105, 28.613630, 20.480824, 14.033605, 10.321772, 8.552420, 3.740117, 2.489419];[0.003776623285, 0.462210876096, 0.475566473970, 0.463451052753, -2.303855575075, -1.356908560157, 2.981412607061, 1.024229396098, 0.026969616915, -0.004837007395]
Iridium;Ir;Transition metal;sp3d;77;0;77;1s^2 2s^2 2p^6 3s^2 3p^6 4s^2 3d^10 4p^6 5s^2 4d^10 5p^6 6s^2 4f^14 5d^7;No special;4S;-16806,11293237;0,3382;5;2;5;1;6;[2, 2, 3, 4, 3, 3, 3, 4, 3, 3];[70.152737, 40.345105, 35.784105, 28.613630, 20.480824, 14.033605, 10.321772, 8.552420, 3.740117, 2.489419];[-0.001590943588, -0.177232340441, -0.207026463978, -0.247608140343, 1.067931967344, 0.502120167526, -1.390985126612, -1.088474368123, 2.332948164750, 0.818676545149]
Iridium;Ir;Transition metal;sp3d;77;0;77;1s^2 2s^2 2p^6 3s^2 3p^6 4s^2 3d^10 4p^6 5s^2 4d^10 5p^6 6s^2 4f^14 5d^7;No special;4S;-16806,11293237;0,3382;5;2;3;2;10;[3, 3, 4, 4, 4, 4, 4, 4, 4];[41.611811, 25.711049, 21.115165, 13.665803, 9.750244, 7.096141, 4.480287, 2.743124, 1.639544];[0.043688763242, 1.677020353652, 1.453262646062, 0.251618006231, -0.056573463568, 0.022473674875, -0.005202895434, 0.001586198474, -0.000416471968]
Iridium;Ir;Transition metal;sp3d;77;0;77;1s^2 2s^2 2p^6 3s^2 3p^6 4s^2 3d^10 4p^6 5s^2 4d^10 5p^6 6s^2 4f^14 5d^7;No special;4S;-16806,11293237;0,3382;5;2;4;2;10;[3, 3, 4, 4, 4, 4, 4, 4, 4];[41.611811, 25.711049, 21.115165, 13.665803, 9.750244, 7.096141, 4.480287, 2.743124, 1.639544];[-0.018773493785, -0.863441257671, -0.841407455618, 0.910732803851, 1.979752783526, 0.785530641818, 0.035015268076, -0.001040705578, 0.000650796742]
Iridium;Ir;Transition metal;sp3d;77;0;77;1s^2 2s^2 2p^6 3s^2 3p^6 4s^2 3d^10 4p^6 5s^2 4d^10 5p^6 6s^2 4f^14 5d^7;No special;4S;-16806,11293237;0,3382;5;2;5;2;7;[3, 3, 4, 4, 4, 4, 4, 4, 4];[41.611811, 25.711049, 21.115165, 13.665803, 9.750244, 7.096141, 4.480287, 2.743124, 1.639544];[0.004483490172, 0.212451978253, 0.214401103243, -0.288703853913, -0.545023711779, -0.363026447718, 1.099200135643, 1.520338658882, 0.580485774902]
Iridium;Ir;Transition metal;sp3d;77;0;77;1s^2 2s^2 2p^6 3s^2 3p^6 4s^2 3d^10 4p^6 5s^2 4d^10 5p^6 6s^2 4f^14 5d^7;No special;4S;-16806,11293237;0,3382;5;2;4;3;14;[4, 4, 4, 4, 4, 4];[24.853136, 14.911967, 9.790906, 6.623491, 4.425274, 2.775013];[0.082798387980, 0.906189009177, 1.550631872525, 1.289132676084, 0.437339133664, 0.026765571951]
Platinum;Pt;Transition metal;sp3d;78;0;78;1s^2 2s^2 2p^6 3s^2 3p^6 4s^2 3d^10 4p^6 5s^2 4d^10 5p^6 6s^2 4f^14 5d^8;No special;2D;-17331,069712924;0,3309;5;2;1;0;2;[1, 1, 2, 2, 3, 3, 3, 3, 3, 3, 3, 3, 3];[96.326260, 76.585788, 63.520880, 36.406532, 33.061689, 23.311950, 18.635661, 9.434858, 7.795365, 4.597687, 3.229778, 1.315052, 0.814405];[0.079792616195, 1.330661683687, 0.005423226169, 0.003073227492, -0.002506693539, 0.001959675733, -0.001179595532, 0.000566675374, -0.000471215959, 0.000120773838, -0.000048931789, 0.000008485281, -0.000003818377]
Platinum;Pt;Transition metal;sp3d;78;0;78;1s^2 2s^2 2p^6 3s^2 3p^6 4s^2 3d^10 4p^6 5s^2 4d^10 5p^6 6s^2 4f^14 5d^8;No special;2D;-17331,069712924;0,3309;5;2;2;0;2;[1, 1, 2, 2, 3, 3, 3, 3, 3, 3, 3, 3, 3];[96.326260, 76.585788, 63.520880, 36.406532, 33.061689, 23.311950, 18.635661, 9.434858, 7.795365, 4.597687, 3.229778, 1.315052, 0.814405];[0.026636288183, -0.517788698597, -0.353206342585, 1.626260461073, 0.158621445847, 0.009735870427, -0.002728583647, 0.000023758788, -0.000157260548, 0.000071842049, -0.000021778889, 0.000003959798, -0.000001697056]
Platinum;Pt;Transition metal;sp3d;78;0;78;1s^2 2s^2 2p^6 3s^2 3p^6 4s^2 3d^10 4p^6 5s^2 4d^10 5p^6 6s^2 4f^14 5d^8;No special;2D;-17331,069712924;0,3309;5;2;3;0;2;[1, 1, 2, 2, 3, 3, 3, 3, 3, 3, 3, 3, 3];[96.326260, 76.585788, 63.520880, 36.406532, 33.061689, 23.311950, 18.635661, 9.434858, 7.795365, 4.597687, 3.229778, 1.315052, 0.814405];[-0.008718485191, 0.239638488144, 0.190113294875, -0.847222535463, -0.638625893592, 0.627949853988, 1.368875431198, 0.065209811625, -0.036844788783, 0.005615700635, -0.002079601043, 0.000301793174, -0.000135623081]
Platinum;Pt;Transition metal;sp3d;78;0;78;1s^2 2s^2 2p^6 3s^2 3p^6 4s^2 3d^10 4p^6 5s^2 4d^10 5p^6 6s^2 4f^14 5d^8;No special;2D;-17331,069712924;0,3309;5;2;4;0;2;[1, 1, 2, 2, 3, 3, 3, 3, 3, 3, 3, 3, 3];[96.326260, 76.585788, 63.520880, 36.406532, 33.061689, 23.311950, 18.635661, 9.434858, 7.795365, 4.597687, 3.229778, 1.315052, 0.814405];[0.002138149485, -0.115525833118, -0.099747452403, 0.434067114284, 0.346523617817, 0.116623404264, -1.894813252606, 1.807957771038, 0.234408302126, 0.019631688409, -0.002336422226, 0.000409697669, -0.000185544819]