Element name;Symbol;clasificacion;Possible hybridization;Z;Q;N;Complete electronic configuration;Special configuration;Config;Energy;Ionization;Valence_n;Valence_l;n;l;mz;N_list;A_list;C_list
Zirconium;Zr;Transition metal;sp3d;40;0;40;1s^2 2s^2 2p^6 3s^2 3p^6 4s^2 3d^10 4p^6 5s^2 4d^2;No special;3F;-3538,995062775;0,2515;4;2;2;0;2;[1, 3, 1, 4, 3, 2, 4, 4, 2, 2, 2, 2, 2, 3];[67.592359, 50.153491, 41.425649, 29.178763, 17.919326, 17.912024, 9.994816, 7.642912, 6.238086, 4.544157, 2.661086, 1.940158, 0.730087, 0.643883];[0.063861783257, -0.067053804689, -0.553924400700, 0.152806341100, 0.383312403744, 0.970892965908, -0.053673505911, -0.035622201159, 0.149066170491, -0.011217966241, 0.001224001838, -0.000443073109, 0.000044123463, -0.000019798990]
Zirconium;Zr;Transition metal;sp3d;40;0;40;1s^2 2s^2 2p^6 3s^2 3p^6 4s^2 3d^10 4p^6 5s^2 4d^2;No special;3F;-3538,995062775;0,2515;4;2;3;0;2;[1, 3, 1, 4, 3, 2, 4, 4, 2, 2, 2, 2, 2, 3];[67.592359, 50.153491, 41.425649, 29.178763, 17.919326, 17.912024, 9.994816, 7.642912, 6.238086, 4.544157, 2.661086, 1.940158, 0.730087, 0.643883];[-0.027407458839, 0.029468816527, 0.231861869186, -0.053143600090, -0.533814142422, -0.531008484136, 0.372637212668, -0.077337117187, 1.494808461922, -0.021240356336, 0.008284321627, -0.001262044183, 0.000127420642, -0.000054730065]
Zirconium;Zr;Transition metal;sp3d;40;0;40;1s^2 2s^2 2p^6 3s^2 3p^6 4s^2 3d^10 4p^6 5s^2 4d^2;No special;3F;-3538,995062775;0,2515;4;2;4;0;2;[1, 3, 1, 4, 3, 2, 4, 4, 2, 2, 2, 2, 2, 3];[67.592359, 50.153491, 41.425649, 29.178763, 17.919326, 17.912024, 9.994816, 7.642912, 6.238086, 4.544157, 2.661086, 1.940158, 0.730087, 0.643883];[0.010265069142, -0.011120951190, -0.087412257448, 0.017295690446, 0.248292202354, 0.215802625657, -0.144686633931, -0.252571754015, -0.820428562468, -0.496648185739, 2.019257540713, 0.174597957882, -0.000365857049, 0.000178756594]
Zirconium;Zr;Transition metal;sp3d;40;0;40;1s^2 2s^2 2p^6 3s^2 3p^6 4s^2 3d^10 4p^6 5s^2 4d^2;No special;3F;-3538,995062775;0,2515;4;2;5;0;2;[1, 3, 1, 4, 3, 2, 4, 4, 2, 2, 2, 2, 2, 3];[67.592359, 50.153491, 41.425649, 29.178763, 17.919326, 17.912024, 9.994816, 7.642912, 6.238086, 4.544157, 2.661086, 1.940158, 0.730087, 0.643883];[-0.002710481714, 0.002974373964, 0.023159444140, -0.004076753436, -0.069834289974, -0.058801727131, 0.032785288752, 0.110030764900, 0.286500717275, 0.040390363605, -0.366259392344, -0.618415933257, 1.553227502863, 0.141448933402]
Zirconium;Zr;Transition metal;sp3d;40;0;40;1s^2 2s^2 2p^6 3s^2 3p^6 4s^2 3d^10 4p^6 5s^2 4d^2;No special;3F;-3538,995062775;0,2515;4;2;2;1;6;[2, 3, 2, 3, 3, 2, 3, 3, 3, 2, 2];[60.343183, 50.196004, 30.901959, 24.531890, 17.884138, 11.439539, 8.353774, 6.122179, 2.017179, 1.812481, 0.643883];[-0.021402906526, -0.040258588668, 0.777578026449, 0.974572115288, 0.803766011187, 0.155235922551, 0.000773303912, 0.000718925240, 0.000135456783, -0.000228047495, -0.000000244949]
Zirconium;Zr;Transition metal;sp3d;40;0;40;1s^2 2s^2 2p^6 3s^2 3p^6 4s^2 3d^10 4p^6 5s^2 4d^2;No special;3F;-3538,995062775;0,2515;4;2;3;1;6;[2, 3, 2, 3, 3, 2, 3, 3, 3, 2, 2];[60.343183, 50.196004, 30.901959, 24.531890, 17.884138, 11.439539, 8.353774, 6.122179, 2.017179, 1.812481, 0.643883];[-0.014079667042, -0.026447875600, 0.410768652110, 0.479554978118, 0.798324714672, -0.578683868416, -1.878700334859, -0.667345844095, 0.008958028938, -0.014960993451, 0.000022045408]
Zirconium;Zr;Transition metal;sp3d;40;0;40;1s^2 2s^2 2p^6 3s^2 3p^6 4s^2 3d^10 4p^6 5s^2 4d^2;No special;3F;-3538,995062775;0,2515;4;2;4;1;6;[2, 3, 2, 3, 3, 2, 3, 3, 3, 2, 2];[60.343183, 50.196004, 30.901959, 24.531890, 17.884138, 11.439539, 8.353774, 6.122179, 2.017179, 1.812481, 0.643883];[-0.005776386711, -0.010842176448, 0.159371885982, 0.179446434220, 0.357499108776, -0.395845625750, -0.699741815637, -1.179192200543, -2.194982614580, 5.230574750414, 0.004786792855]
Zirconium;Zr;Transition metal;sp3d;40;0;40;1s^2 2s^2 2p^6 3s^2 3p^6 4s^2 3d^10 4p^6 5s^2 4d^2;No special;3F;-3538,995062775;0,2515;4;2;3;2;10;[3, 4, 3, 4, 3, 4, 3, 3, 3, 3, 3];[42.479679, 32.217117, 13.438794, 12.539994, 8.374347, 6.870380, 4.690315, 2.537352, 1.602841, 1.043033, 0.643884];[0.002882099859, 0.015205812129, 0.600261964314, 0.022008187604, 1.827657979816, 0.618032699853, 0.367631538066, 0.009571582022, -0.002076035284, 0.001022680595, -0.000204915592]
Zirconium;Zr;Transition metal;sp3d;40;0;40;1s^2 2s^2 2p^6 3s^2 3p^6 4s^2 3d^10 4p^6 5s^2 4d^2;No special;3F;-3538,995062775;0,2515;4;2;4;2;2;[3, 4, 3, 4, 3, 4, 3, 3, 3, 3, 3];[42.479679, 32.217117, 13.438794, 12.539994, 8.374347, 6.870380, 4.690315, 2.537352, 1.602841, 1.043033, 0.643884];[-0.000323430642, -0.001730148872, -0.072703022185, -0.019413475256, -0.183734060338, -0.168604945069, 0.056227009920, 0.543983327885, 0.681086100167, 0.341438671533, 0.006108271219]
Niobium;Nb;Transition metal;sp3d;41;0;41;1s^2 2s^2 2p^6 3s^2 3p^6 4s^2 3d^10 4p^6 5s^2 4d^3;No special;2S;-3753,597725705;0,2529;4;2;1;0;2;[1, 3, 1, 4, 3, 2, 4, 4, 2, 2, 2, 2, 2, 3];[69.224980, 51.473096, 42.500584, 30.023131, 18.478494, 18.468216, 10.314928, 7.800341, 6.414258, 4.657761, 2.765297, 1.901811, 0.740290, 0.656651];[-0.029397964428, 0.036379512521, 1.384236194649, -0.039967230908, -0.042512108213, 0.108789933920, -0.005425064647, -0.002399920415, 0.012006107459, -0.001139007603, 0.000155563492, -0.000042426407, 0.000005515433, -0.000002404163]
Niobium;Nb;Transition metal;sp3d;41;0;41;1s^2 2s^2 2p^6 3s^2 3p^6 4s^2 3d^10 4p^6 5s^2 4d^3;No special;2S;-3753,597725705;0,2529;4;2;2;0;2;[1, 3, 1, 4, 3, 2, 4, 4, 2, 2, 2, 2, 2, 3];[69.224980, 51.473096, 42.500584, 30.023131, 18.478494, 18.468216, 10.314928, 7.800341, 6.414258, 4.657761, 2.765297, 1.901811, 0.740290, 0.656651];[0.064435388278, -0.066536768211, -0.555196202957, 0.153195249829, 0.396805273921, 0.955031146593, -0.058029566526, -0.037951976581, 0.155597715829, -0.009628673039, 0.000916127546, -0.000286943932, 0.000031395541, -0.000017819091]
Niobium;Nb;Transition metal;sp3d;41;0;41;1s^2 2s^2 2p^6 3s^2 3p^6 4s^2 3d^10 4p^6 5s^2 4d^3;No special;2S;-3753,597725705;0,2529;4;2;3;0;2;[1, 3, 1, 4, 3, 2, 4, 4, 2, 2, 2, 2, 2, 3];[69.224980, 51.473096, 42.500584, 30.023131, 18.478494, 18.468216, 10.314928, 7.800341, 6.414258, 4.657761, 2.765297, 1.901811, 0.740290, 0.656651];[-0.027802731529, 0.029394428894, 0.233973855720, -0.053719185009, -0.541158012030, -0.524929769981, 0.398106350398, -0.091106183272, 1.484413426553, -0.025028751627, 0.007988750992, -0.000825617878, 0.000087964084, -0.000056427121]
Niobium;Nb;Transition metal;sp3d;41;0;41;1s^2 2s^2 2p^6 3s^2 3p^6 4s^2 3d^10 4p^6 5s^2 4d^3;No special;2S;-3753,597725705;0,2529;4;2;4;0;2;[1, 3, 1, 4, 3, 2, 4, 4, 2, 2, 2, 2, 2, 3];[69.224980, 51.473096, 42.500584, 30.023131, 18.478494, 18.468216, 10.314928, 7.800341, 6.414258, 4.657761, 2.765297, 1.901811, 0.740290, 0.656651];[0.010580297346, -0.011253180159, -0.089655200157, 0.017950895590, 0.255954835699, 0.218381585509, -0.174672628359, -0.320283309432, -0.980185480384, -0.214362390565, 1.982269916360, 0.166056107966, -0.008305817673, -0.000010748023]
Niobium;Nb;Transition metal;sp3d;41;0;41;1s^2 2s^2 2p^6 3s^2 3p^6 4s^2 3d^10 4p^6 5s^2 4d^3;No special;2S;-3753,597725705;0,2529;4;2;5;0;1;[1, 3, 1, 4, 3, 2, 4, 4, 2, 2, 2, 2, 2, 3];[69.224980, 51.473096, 42.500584, 30.023131, 18.478494, 18.468216, 10.314928, 7.800341, 6.414258, 4.657761, 2.765297, 1.901811, 0.740290, 0.656651];[-0.001920900000, 0.002061800000, 0.016321600000, -0.003002000000, -0.048975800000, -0.040699700000, 0.029907200000, 0.084325300000, 0.213868900000, 0.009345800000, -0.345698300000, -0.336880100000, 1.102082800000, 0.084505500000]
Niobium;Nb;Transition metal;sp3d;41;0;41;1s^2 2s^2 2p^6 3s^2 3p^6 4s^2 3d^10 4p^6 5s^2 4d^3;No special;2S;-3753,597725705;0,2529;4;2;2;1;6;[2, 3, 2, 3, 3, 2, 3, 3, 3, 2, 2];[61.188113, 51.173261, 31.939090, 25.360587, 18.624521, 12.519467, 8.779237, 6.486416, 2.181603, 1.942735, 0.656651];[-0.023483993011, -0.042371518520, 0.763218137781, 0.940084524454, 0.780303083788, 0.224044538915, 0.002814463714, 0.000304716524, 0.000094060406, -0.000196938975, 0.000000489898]
Niobium;Nb;Transition metal;sp3d;41;0;41;1s^2 2s^2 2p^6 3s^2 3p^6 4s^2 3d^10 4p^6 5s^2 4d^3;No special;2S;-3753,597725705;0,2529;4;2;3;1;6;[2, 3, 2, 3, 3, 2, 3, 3, 3, 2, 2];[61.188113, 51.173261, 31.939090, 25.360587, 18.624521, 12.519467, 8.779237, 6.486416, 2.181603, 1.942735, 0.656651];[-0.015781817464, -0.028470174331, 0.412655983957, 0.467772932455, 0.792691623111, -0.488327580683, -1.871423635680, -0.739511731101, 0.013132939256, -0.021811971313, -0.000032333265]
Niobium;Nb;Transition metal;sp3d;41;0;41;1s^2 2s^2 2p^6 3s^2 3p^6 4s^2 3d^10 4p^6 5s^2 4d^3;No special;2S;-3753,597725705;0,2529;4;2;4;1;6;[2, 3, 2, 3, 3, 2, 3, 3, 3, 2, 2];[61.188113, 51.173261, 31.939090, 25.360587, 18.624521, 12.519467, 8.779237, 6.486416, 2.181603, 1.942735, 0.656651];[-0.007048406735, -0.012749594111, 0.170862687314, 0.183636286425, 0.386421703863, -0.401439770424, -0.690481274716, -1.267491161842, -2.070722694367, 5.155729611527, 0.004863951782]
Niobium;Nb;Transition metal;sp3d;41;0;41;1s^2 2s^2 2p^6 3s^2 3p^6 4s^2 3d^10 4p^6 5s^2 4d^3;No special;2S;-3753,597725705;0,2529;4;2;3;2;10;[3, 4, 3, 4, 3, 4, 3, 3, 3, 3, 3];[43.214432, 33.016274, 14.004307, 13.637693, 8.606973, 6.975387, 4.590202, 2.663261, 1.622145, 1.012512, 0.656651];[0.002927952886, 0.014734632758, 0.583653998271, 0.037286415891, 1.926763445458, 0.664087479241, 0.220997355420, 0.003519298808, 0.000082851675, 0.000220094525, -0.000036682421]
Niobium;Nb;Transition metal;sp3d;41;0;41;1s^2 2s^2 2p^6 3s^2 3p^6 4s^2 3d^10 4p^6 5s^2 4d^3;No special;2S;-3753,597725705;0,2529;4;2;4;2;4;[3, 4, 3, 4, 3, 4, 3, 3, 3, 3, 3];[43.214432, 33.016274, 14.004307, 13.637693, 8.606973, 6.975387, 4.590202, 2.663261, 1.622145, 1.012512, 0.656651];[-0.000474000000, -0.002412800000, -0.096065400000, -0.021656400000, -0.295617400000, -0.245539200000, 0.132785000000, 0.801423000000, 0.911768800000, 0.519657000000, 0.011669800000]
Molybdenum;Mo;Transition metal;sp3d;42;0;42;1s^2 2s^2 2p^6 3s^2 3p^6 4s^2 3d^10 4p^6 5s^2 4d^4;No special;1S;-3975,549497368;0,2621;4;2;1;0;2;[1, 3, 1, 4, 3, 2, 4, 4, 2, 2, 2, 2, 2, 3];[70.970218, 52.859118, 43.594250, 30.932320, 19.096160, 19.034201, 10.703418, 8.196596, 6.754842, 5.299063, 2.917595, 2.061635, 0.766969, 0.667426];[-0.030491434354, 0.036700963264, 1.384211870175, -0.040349775676, -0.043603173976, 0.111000208297, -0.005240368355, -0.002047639817, 0.012043584119, -0.001582504976, 0.000102954747, -0.000028425693, 0.000002687006, -0.000001131371]
Molybdenum;Mo;Transition metal;sp3d;42;0;42;1s^2 2s^2 2p^6 3s^2 3p^6 4s^2 3d^10 4p^6 5s^2 4d^4;No special;1S;-3975,549497368;0,2621;4;2;2;0;2;[1, 3, 1, 4, 3, 2, 4, 4, 2, 2, 2, 2, 2, 3];[70.970218, 52.859118, 43.594250, 30.932320, 19.096160, 19.034201, 10.703418, 8.196596, 6.754842, 5.299063, 2.917595, 2.061635, 0.766969, 0.667426];[0.064469753668, -0.065657410218, -0.555308350093, 0.152570591699, 0.413914571020, 0.933237549911, -0.060392717389, -0.035765036728, 0.167038986392, -0.016020635499, 0.000750098873, -0.000268417734, 0.000019657569, -0.000014283557]
Molybdenum;Mo;Transition metal;sp3d;42;0;42;1s^2 2s^2 2p^6 3s^2 3p^6 4s^2 3d^10 4p^6 5s^2 4d^4;No special;1S;-3975,549497368;0,2621;4;2;3;0;2;[1, 3, 1, 4, 3, 2, 4, 4, 2, 2, 2, 2, 2, 3];[70.970218, 52.859118, 43.594250, 30.932320, 19.096160, 19.034201, 10.703418, 8.196596, 6.754842, 5.299063, 2.917595, 2.061635, 0.766969, 0.667426];[-0.027929445065, 0.029142274616, 0.235473487782, -0.053460242506, -0.546520568437, -0.515701602222, 0.441525252347, -0.040484125965, 1.373500899497, -0.002084975055, 0.006027236781, -0.000137602980, 0.000002828427, -0.000012727922]
Molybdenum;Mo;Transition metal;sp3d;42;0;42;1s^2 2s^2 2p^6 3s^2 3p^6 4s^2 3d^10 4p^6 5s^2 4d^4;No special;1S;-3975,549497368;0,2621;4;2;4;0;2;[1, 3, 1, 4, 3, 2, 4, 4, 2, 2, 2, 2, 2, 3];[70.970218, 52.859118, 43.594250, 30.932320, 19.096160, 19.034201, 10.703418, 8.196596, 6.754842, 5.299063, 2.917595, 2.061635, 0.766969, 0.667426];[0.010814066847, -0.011343548405, -0.091875232608, 0.018191453317, 0.262971739131, 0.218650427508, -0.190067474356, -0.348011370485, -0.864553864091, -0.320838953940, 1.953641991217, 0.210945792020, -0.008069926851, -0.000422708434]
Molybdenum;Mo;Transition metal;sp3d;42;0;42;1s^2 2s^2 2p^6 3s^2 3p^6 4s^2 3d^10 4p^6 5s^2 4d^4;No special;1S;-3975,549497368;0,2621;4;2;5;0;1;[1, 3, 1, 4, 3, 2, 4, 4, 2, 2, 2, 2, 2, 3];[70.970218, 52.859118, 43.594250, 30.932320, 19.096160, 19.034201, 10.703418, 8.196596, 6.754842, 5.299063, 2.917595, 2.061635, 0.766969, 0.667426];[-0.001946300000, 0.002074700000, 0.016600400000, -0.002865200000, -0.050631400000, -0.040713400000, 0.030583500000, 0.093351000000, 0.202534300000, 0.020595200000, -0.340005400000, -0.328503200000, 1.075509000000, 0.096880100000]
Molybdenum;Mo;Transition metal;sp3d;42;0;42;1s^2 2s^2 2p^6 3s^2 3p^6 4s^2 3d^10 4p^6 5s^2 4d^4;No special;1S;-3975,549497368;0,2621;4;2;2;1;6;[2, 3, 2, 3, 3, 2, 3, 3, 3, 2, 2];[67.532635, 55.500761, 33.311169, 26.716574, 19.618106, 13.014445, 9.180252, 6.831291, 2.310849, 2.054575, 0.667426];[-0.015575325478, -0.031658430181, 0.703427807802, 0.874471512408, 0.832923757289, 0.279044401804, -0.000260870658, 0.001406497010, 0.000451440960, -0.000702023760, -0.000007103520]
Molybdenum;Mo;Transition metal;sp3d;42;0;42;1s^2 2s^2 2p^6 3s^2 3p^6 4s^2 3d^10 4p^6 5s^2 4d^4;No special;1S;-3975,549497368;0,2621;4;2;3;1;6;[2, 3, 2, 3, 3, 2, 3, 3, 3, 2, 2];[67.532635, 55.500761, 33.311169, 26.716574, 19.618106, 13.014445, 9.180252, 6.831291, 2.310849, 2.054575, 0.667426];[-0.010507576150, -0.021478840708, 0.368042937373, 0.415192675534, 0.746461423399, -0.314086067217, -1.853746403053, -0.799527659085, 0.017103807078, -0.028001586944, -0.000064666529]
Molybdenum;Mo;Transition metal;sp3d;42;0;42;1s^2 2s^2 2p^6 3s^2 3p^6 4s^2 3d^10 4p^6 5s^2 4d^4;No special;1S;-3975,549497368;0,2621;4;2;4;1;6;[2, 3, 2, 3, 3, 2, 3, 3, 3, 2, 2];[67.532635, 55.500761, 33.311169, 26.716574, 19.618106, 13.014445, 9.180252, 6.831291, 2.310849, 2.054575, 0.667426];[-0.004947234433, -0.010162932943, 0.156656871551, 0.165116184377, 0.374156618822, -0.339098296879, -0.680111604839, -1.355474138964, -2.093557082698, 5.213637263690, 0.004322124651]
Molybdenum;Mo;Transition metal;sp3d;42;0;42;1s^2 2s^2 2p^6 3s^2 3p^6 4s^2 3d^10 4p^6 5s^2 4d^4;No special;1S;-3975,549497368;0,2621;4;2;3;2;10;[3, 4, 3, 3, 3, 4, 3, 3, 3, 3, 3];[44.896919, 34.167168, 16.927667, 14.083737, 8.794719, 7.132066, 4.695625, 2.791184, 1.721238, 1.089989, 0.667426];[0.002718293877, 0.014040196583, 0.015110311344, 0.622719827801, 1.991296678124, 0.616698534909, 0.173510064252, 0.001548567370, 0.000452838161, -0.000198274809, 0.000039212243]
Molybdenum;Mo;Transition metal;sp3d;42;0;42;1s^2 2s^2 2p^6 3s^2 3p^6 4s^2 3d^10 4p^6 5s^2 4d^4;No special;1S;-3975,549497368;0,2621;4;2;4;2;5;[3, 4, 3, 3, 3, 4, 3, 3, 3, 3, 3];[44.896919, 34.167168, 16.927667, 14.083737, 8.794719, 7.132066, 4.695625, 2.791184, 1.721238, 1.089989, 0.667426];[-0.000567290446, -0.002984927143, 0.011505240565, -0.145260118775, -0.389132847818, -0.293880153292, 0.209441307113, 0.970332307351, 1.003596725404, 0.496215683586, 0.006595729713]
Technetium;Tc;Transition metal;sp3d;43;0;43;1s^2 2s^2 2p^6 3s^2 3p^6 4s^2 3d^10 4p^6 5s^2 4d^5;Half orbital;2P;-4204,788734656;0,2658;4;2;1;0;2;[1, 3, 1, 4, 3, 2, 4, 4, 2, 2, 2, 2, 2, 2];[74.164305, 54.792743, 44.805211, 32.289572, 20.180572, 20.132338, 11.529383, 8.882526, 7.851249, 5.980539, 3.063907, 2.193010, 0.862897, 0.680109];[-0.030984712045, 0.038115318248, 1.379541147043, -0.042467843329, -0.045390457077, 0.118716016072, -0.005030216220, -0.001126986788, 0.010518071949, -0.000670054386, 0.000035921024, -0.000009758074, 0.000001131371, -0.000000565685]
Technetium;Tc;Transition metal;sp3d;43;0;43;1s^2 2s^2 2p^6 3s^2 3p^6 4s^2 3d^10 4p^6 5s^2 4d^5;Half orbital;2P;-4204,788734656;0,2658;4;2;2;0;2;[1, 3, 1, 4, 3, 2, 4, 4, 2, 2, 2, 2, 2, 2];[74.164305, 54.792743, 44.805211, 32.289572, 20.180572, 20.132338, 11.529383, 8.882526, 7.851249, 5.980539, 3.063907, 2.193010, 0.862897, 0.680109];[0.058751663971, -0.063047337667, -0.544988692307, 0.142821569085, 0.508090021987, 0.813126129317, -0.082432387230, -0.031036755104, 0.205023489885, -0.005150848637, 0.000042284986, -0.000062649661, 0.000009192388, -0.000005374012]
Technetium;Tc;Transition metal;sp3d;43;0;43;1s^2 2s^2 2p^6 3s^2 3p^6 4s^2 3d^10 4p^6 5s^2 4d^5;Half orbital;2P;-4204,788734656;0,2658;4;2;3;0;2;[1, 3, 1, 4, 3, 2, 4, 4, 2, 2, 2, 2, 2, 2];[74.164305, 54.792743, 44.805211, 32.289572, 20.180572, 20.132338, 11.529383, 8.882526, 7.851249, 5.980539, 3.063907, 2.193010, 0.862897, 0.680109];[-0.025323615155, 0.028014156457, 0.231928902909, -0.046589710177, -0.561760275207, -0.446733942319, 0.537438206097, 0.236969442888, 0.807925217520, 0.183039681479, 0.006124110411, -0.000397818275, 0.000116672619, -0.000067882251]
Technetium;Tc;Transition metal;sp3d;43;0;43;1s^2 2s^2 2p^6 3s^2 3p^6 4s^2 3d^10 4p^6 5s^2 4d^5;Half orbital;2P;-4204,788734656;0,2658;4;2;4;0;2;[1, 3, 1, 4, 3, 2, 4, 4, 2, 2, 2, 2, 2, 2];[74.164305, 54.792743, 44.805211, 32.289572, 20.180572, 20.132338, 11.529383, 8.882526, 7.851249, 5.980539, 3.063907, 2.193010, 0.862897, 0.680109];[0.009959457592, -0.011174832727, -0.092304729267, 0.014643757174, 0.273899508749, 0.190615623533, -0.196836183308, -0.383212136002, -0.230645362680, -0.960744569385, 2.042418681909, 0.172067788398, -0.001239133923, 0.000698197236]
Technetium;Tc;Transition metal;sp3d;43;0;43;1s^2 2s^2 2p^6 3s^2 3p^6 4s^2 3d^10 4p^6 5s^2 4d^5;Half orbital;2P;-4204,788734656;0,2658;4;2;5;0;2;[1, 3, 1, 4, 3, 2, 4, 4, 2, 2, 2, 2, 2, 2];[74.164305, 54.792743, 44.805211, 32.289572, 20.180572, 20.132338, 11.529383, 8.882526, 7.851249, 5.980539, 3.063907, 2.193010, 0.862897, 0.680109];[-0.002516875877, 0.002881742976, 0.023493905648, -0.002939584311, -0.075539510327, -0.050932052921, 0.042662721957, 0.155722732308, 0.133774279241, 0.168455604117, -0.471279315750, -0.485554670292, 0.853627084423, 0.798090210722]
Technetium;Tc;Transition metal;sp3d;43;0;43;1s^2 2s^2 2p^6 3s^2 3p^6 4s^2 3d^10 4p^6 5s^2 4d^5;Half orbital;2P;-4204,788734656;0,2658;4;2;2;1;6;[2, 3, 2, 3, 3, 2, 3, 3, 3, 2, 2];[66.630255, 55.413772, 34.081682, 27.355959, 20.428471, 14.321864, 9.543653, 7.107659, 2.425902, 2.175861, 0.680109];[-0.018311650470, -0.034375159254, 0.690882011238, 0.820838464796, 0.733709869696, 0.432652148523, 0.003795974254, 0.000289774637, 0.000256216627, -0.000445317235, -0.000002204541]
Technetium;Tc;Transition metal;sp3d;43;0;43;1s^2 2s^2 2p^6 3s^2 3p^6 4s^2 3d^10 4p^6 5s^2 4d^5;Half orbital;2P;-4204,788734656;0,2658;4;2;3;1;6;[2, 3, 2, 3, 3, 2, 3, 3, 3, 2, 2];[66.630255, 55.413772, 34.081682, 27.355959, 20.428471, 14.321864, 9.543653, 7.107659, 2.425902, 2.175861, 0.680109];[-0.012955596199, -0.024434150082, 0.374957601968, 0.393528898351, 0.715033000306, -0.220181448642, -1.879437631271, -0.815197044970, 0.016321195105, -0.027390684202, -0.000042376173]
Technetium;Tc;Transition metal;sp3d;43;0;43;1s^2 2s^2 2p^6 3s^2 3p^6 4s^2 3d^10 4p^6 5s^2 4d^5;Half orbital;2P;-4204,788734656;0,2658;4;2;4;1;6;[2, 3, 2, 3, 3, 2, 3, 3, 3, 2, 2];[66.630255, 55.413772, 34.081682, 27.355959, 20.428471, 14.321864, 9.543653, 7.107659, 2.425902, 2.175861, 0.680109];[-0.006632483377, -0.012549715748, 0.173796196230, 0.169007443783, 0.396871717003, -0.341602165294, -0.731411023573, -1.418543355912, -2.113828080013, 5.280841464273, 0.004118327105]
Technetium;Tc;Transition metal;sp3d;43;0;43;1s^2 2s^2 2p^6 3s^2 3p^6 4s^2 3d^10 4p^6 5s^2 4d^5;Half orbital;2P;-4204,788734656;0,2658;4;2;3;2;10;[3, 4, 3, 3, 3, 4, 3, 3, 3, 3, 3];[47.460462, 35.858566, 19.502703, 14.581944, 9.140374, 7.498466, 5.110192, 3.054737, 1.987935, 1.308653, 0.680109];[0.002220551373, 0.012138719026, 0.010472198699, 0.618344184203, 1.993136491267, 0.577604244879, 0.209006630988, 0.002923841925, 0.000375362358, -0.000120799007, 0.000020554805]