Element name;Symbol;clasificacion;Possible hybridization;Z;Q;N;Complete electronic configuration;Special configuration;Config;Energy;Ionization;Valence_n;Valence_l;n;l;mz;N_list;A_list;C_list
Thorium;Th;Actinide;Likely without hybridisation;90;0;90;1s^2 2s^2 2p^6 3s^2 3p^6 4s^2 3d^10 4p^6 5s^2 4d^10 5p^6 6s^2 4f^14 5d^10 6p^6 7s^2 5f^2;No special;7S;-24359,622254112;0,2235;6;2;2;1;6;[2, 2, 3, 3, 4, 4, 3, 3, 3, 3, 3, 3];[85.220586, 47.923019, 42.810133, 25.930725, 25.894042, 14.310752, 14.333548, 10.146515, 5.791359, 4.757648, 2.238531, 1.497187];[-0.013085419155, -1.848169894705, -0.629350828899, -0.072999938263, 0.045300618354, 0.018585258474, -0.021891824678, -0.007573087438, 0.001816786542, -0.001027071049, 0.000095775049, -0.000035762550]
Thorium;Th;Actinide;Likely without hybridisation;90;0;90;1s^2 2s^2 2p^6 3s^2 3p^6 4s^2 3d^10 4p^6 5s^2 4d^10 5p^6 6s^2 4f^14 5d^10 6p^6 7s^2 5f^2;No special;7S;-24359,622254112;0,2235;6;2;3;1;6;[2, 2, 3, 3, 4, 4, 3, 3, 3, 3, 3, 3];[85.220586, 47.923019, 42.810133, 25.930725, 25.894042, 14.310752, 14.333548, 10.146515, 5.791359, 4.757648, 2.238531, 1.497187];[-0.004078155473, -0.956017720384, -0.615492105832, 1.769671341867, 0.821103254637, -0.323604294460, 0.650467390074, 0.074320703133, -0.012949472474, 0.006343443587, -0.000483774224, 0.000176118313]
Thorium;Th;Actinide;Likely without hybridisation;90;0;90;1s^2 2s^2 2p^6 3s^2 3p^6 4s^2 3d^10 4p^6 5s^2 4d^10 5p^6 6s^2 4f^14 5d^10 6p^6 7s^2 5f^2;No special;7S;-24359,622254112;0,2235;6;2;4;1;6;[2, 2, 3, 3, 4, 4, 3, 3, 3, 3, 3, 3];[85.220586, 47.923019, 42.810133, 25.930725, 25.894042, 14.310752, 14.333548, 10.146515, 5.791359, 4.757648, 2.238531, 1.497187];[0.001290881094, 0.494744998860, 0.333948244695, -1.069021990280, -0.938634181578, 1.821435918703, -0.753908117166, 1.767224301614, 0.044378385466, -0.014090444796, 0.000486713612, -0.000202082904]
Thorium;Th;Actinide;Likely without hybridisation;90;0;90;1s^2 2s^2 2p^6 3s^2 3p^6 4s^2 3d^10 4p^6 5s^2 4d^10 5p^6 6s^2 4f^14 5d^10 6p^6 7s^2 5f^2;No special;7S;-24359,622254112;0,2235;6;2;5;1;6;[2, 2, 3, 3, 4, 4, 3, 3, 3, 3, 3, 3];[85.220586, 47.923019, 42.810133, 25.930725, 25.894042, 14.310752, 14.333548, 10.146515, 5.791359, 4.757648, 2.238531, 1.497187];[-0.000406860246, -0.233935578497, -0.155028205821, 0.533966473570, 0.576786493662, -0.361215229664, 0.751095857993, -3.438602274133, 2.007915817770, 1.797074518466, 0.025646157607, -0.005644604163]
Thorium;Th;Actinide;Likely without hybridisation;90;0;90;1s^2 2s^2 2p^6 3s^2 3p^6 4s^2 3d^10 4p^6 5s^2 4d^10 5p^6 6s^2 4f^14 5d^10 6p^6 7s^2 5f^2;No special;7S;-24359,622254112;0,2235;6;2;6;1;6;[2, 2, 3, 3, 4, 4, 3, 3, 3, 3, 3, 3];[85.220586, 47.923019, 42.810133, 25.930725, 25.894042, 14.310752, 14.333548, 10.146515, 5.791359, 4.757648, 2.238531, 1.497187];[0.000291734228, 0.093386551495, 0.064831379869, -0.215449034459, -0.217720201349, 0.240183247035, -0.387622688683, 1.466270438805, -0.158881498135, -2.465887606917, 2.745960059566, 0.530244718855]
Thorium;Th;Actinide;Likely without hybridisation;90;0;90;1s^2 2s^2 2p^6 3s^2 3p^6 4s^2 3d^10 4p^6 5s^2 4d^10 5p^6 6s^2 4f^14 5d^10 6p^6 7s^2 5f^2;No special;7S;-24359,622254112;0,2235;6;2;3;2;10;[3, 3, 4, 4, 4, 4, 4, 4, 4, 4, 4];[56.959163, 32.929578, 27.232169, 18.308145, 14.322241, 10.902954, 6.981844, 4.936825, 3.242964, 1.958372, 1.173942];[0.010064264881, 1.420789532998, 1.577004468271, 0.483819943856, -0.139292322603, 0.045614906565, -0.010962667965, 0.004990706603, -0.001602642318, 0.000481614888, -0.000125226195]
Thorium;Th;Actinide;Likely without hybridisation;90;0;90;1s^2 2s^2 2p^6 3s^2 3p^6 4s^2 3d^10 4p^6 5s^2 4d^10 5p^6 6s^2 4f^14 5d^10 6p^6 7s^2 5f^2;No special;7S;-24359,622254112;0,2235;6;2;4;2;10;[3, 3, 4, 4, 4, 4, 4, 4, 4, 4, 4];[56.959163, 32.929578, 27.232169, 18.308145, 14.322241, 10.902954, 6.981844, 4.936825, 3.242964, 1.958372, 1.173942];[-0.003854184012, -0.786189028027, -0.988753150738, 0.129646427056, 1.730581431521, 1.648336597907, 0.124994400390, -0.024899458068, 0.005450185547, -0.001567224808, 0.000373464992]
Thorium;Th;Actinide;Likely without hybridisation;90;0;90;1s^2 2s^2 2p^6 3s^2 3p^6 4s^2 3d^10 4p^6 5s^2 4d^10 5p^6 6s^2 4f^14 5d^10 6p^6 7s^2 5f^2;No special;7S;-24359,622254112;0,2235;6;2;5;2;10;[3, 3, 4, 4, 4, 4, 4, 4, 4, 4, 4];[56.959163, 32.929578, 27.232169, 18.308145, 14.322241, 10.902954, 6.981844, 4.936825, 3.242964, 1.958372, 1.173942];[0.001917605173, 0.341012433406, 0.457578415149, -0.182541213022, -0.698323878328, -1.461937722367, 1.341359126502, 2.350945678693, 0.306073376222, -0.007362098621, 0.002096906316]
Thorium;Th;Actinide;Likely without hybridisation;90;0;90;1s^2 2s^2 2p^6 3s^2 3p^6 4s^2 3d^10 4p^6 5s^2 4d^10 5p^6 6s^2 4f^14 5d^10 6p^6 7s^2 5f^2;No special;7S;-24359,622254112;0,2235;6;2;6;2;2;[3, 3, 4, 4, 4, 4, 4, 4, 4, 4, 4];[56.959163, 32.929578, 27.232169, 18.308145, 14.322241, 10.902954, 6.981844, 4.936825, 3.242964, 1.958372, 1.173942];[-0.000155987756, -0.046906352594, -0.060484217006, 0.013555519838, 0.126296200766, 0.178557473014, -0.155853829905, -0.539197770611, 0.130755498971, 0.976538647871, 0.545720972089]
Thorium;Th;Actinide;Likely without hybridisation;90;0;90;1s^2 2s^2 2p^6 3s^2 3p^6 4s^2 3d^10 4p^6 5s^2 4d^10 5p^6 6s^2 4f^14 5d^10 6p^6 7s^2 5f^2;No special;7S;-24359,622254112;0,2235;6;2;4;3;14;[4, 4, 4, 5, 4, 4];[31.067912, 19.143075, 12.571937, 8.226585, 7.787099, 6.101665];[0.067471436827, 0.944353914522, 1.941293456123, -0.700031544646, 1.754038470545, 0.060708765266]
Protactinium;Pa;Actinide;Likely without hybridisation;91;0;91;1s^2 2s^2 2p^6 3s^2 3p^6 4s^2 3d^10 4p^6 5s^2 4d^10 5p^6 6s^2 4f^14 5d^10 6p^6 7s^2 5f^3;No special;6S;-25007,109683472;0,2162;6;2;1;0;2;[1, 1, 2, 2, 3, 3, 3, 4, 3, 3, 3, 3, 3, 3, 3];[105.154520, 88.309408, 73.179755, 42.592913, 38.076008, 26.773490, 21.322733, 11.450486, 11.452736, 6.017261, 4.935803, 2.561338, 1.895353, 0.856942, 0.621841];[0.177710924776, 1.239251020234, -0.003458176424, 0.004724604669, -0.003894461308, 0.003687703285, -0.002621669102, -0.001045810929, 0.001327239428, 0.000578696190, -0.000393999898, 0.000087964084, -0.000049497475, 0.000012586501, -0.000006505382]
Protactinium;Pa;Actinide;Likely without hybridisation;91;0;91;1s^2 2s^2 2p^6 3s^2 3p^6 4s^2 3d^10 4p^6 5s^2 4d^10 5p^6 6s^2 4f^14 5d^10 6p^6 7s^2 5f^3;No special;6S;-25007,109683472;0,2162;6;2;2;0;2;[1, 1, 2, 2, 3, 3, 3, 4, 3, 3, 3, 3, 3, 3, 3];[105.154520, 88.309408, 73.179755, 42.592913, 38.076008, 26.773490, 21.322733, 11.450486, 11.452736, 6.017261, 4.935803, 2.561338, 1.895353, 0.856942, 0.621841];[0.048346729107, -0.555692733339, -0.357795889859, 1.673875900347, 0.133536549942, -0.000162210296, 0.000593121168, 0.000481963982, -0.000854609256, -0.000095883680, 0.000073397684, -0.000017677670, 0.000009050967, -0.000002262742, 0.000001131371]
Protactinium;Pa;Actinide;Likely without hybridisation;91;0;91;1s^2 2s^2 2p^6 3s^2 3p^6 4s^2 3d^10 4p^6 5s^2 4d^10 5p^6 6s^2 4f^14 5d^10 6p^6 7s^2 5f^3;No special;6S;-25007,109683472;0,2162;6;2;3;0;2;[1, 1, 2, 2, 3, 3, 3, 4, 3, 3, 3, 3, 3, 3, 3];[105.154520, 88.309408, 73.179755, 42.592913, 38.076008, 26.773490, 21.322733, 11.450486, 11.452736, 6.017261, 4.935803, 2.561338, 1.895353, 0.856942, 0.621841];[-0.013880223272, 0.255273184762, 0.202097764867, -0.897673048666, -0.722775560351, 1.120334327258, 0.995615681720, -0.014268142052, 0.031184964685, 0.001455367177, -0.000997444826, 0.000181160757, -0.000082165808, 0.000018101934, -0.000009050967]
Protactinium;Pa;Actinide;Likely without hybridisation;91;0;91;1s^2 2s^2 2p^6 3s^2 3p^6 4s^2 3d^10 4p^6 5s^2 4d^10 5p^6 6s^2 4f^14 5d^10 6p^6 7s^2 5f^3;No special;6S;-25007,109683472;0,2162;6;2;4;0;2;[1, 1, 2, 2, 3, 3, 3, 4, 3, 3, 3, 3, 3, 3, 3];[105.154520, 88.309408, 73.179755, 42.592913, 38.076008, 26.773490, 21.322733, 11.450486, 11.452736, 6.017261, 4.935803, 2.561338, 1.895353, 0.856942, 0.621841];[0.006958354991, -0.131624957469, -0.106162890807, 0.469921387888, 0.458896037534, -0.237311541149, -1.896530532135, -0.178111147214, 2.390599050915, 0.053056060270, -0.020671983905, 0.001701016073, -0.000889398909, 0.000163765931, -0.000080468752]
Protactinium;Pa;Actinide;Likely without hybridisation;91;0;91;1s^2 2s^2 2p^6 3s^2 3p^6 4s^2 3d^10 4p^6 5s^2 4d^10 5p^6 6s^2 4f^14 5d^10 6p^6 7s^2 5f^3;No special;6S;-25007,109683472;0,2162;6;2;5;0;2;[1, 1, 2, 2, 3, 3, 3, 4, 3, 3, 3, 3, 3, 3, 3];[105.154520, 88.309408, 73.179755, 42.592913, 38.076008, 26.773490, 21.322733, 11.450486, 11.452736, 6.017261, 4.935803, 2.561338, 1.895353, 0.856942, 0.621841];[-0.005538908838, 0.067090291399, 0.049344315354, -0.224953860198, -0.249575176897, 0.098669821668, 1.075348193839, -0.817041945250, -1.559044304667, 1.856979504279, 0.524062291381, 0.007950001541, -0.000709510944, 0.000069720729, -0.000023334524]
Protactinium;Pa;Actinide;Likely without hybridisation;91;0;91;1s^2 2s^2 2p^6 3s^2 3p^6 4s^2 3d^10 4p^6 5s^2 4d^10 5p^6 6s^2 4f^14 5d^10 6p^6 7s^2 5f^3;No special;6S;-25007,109683472;0,2162;6;2;6;0;2;[1, 1, 2, 2, 3, 3, 3, 4, 3, 3, 3, 3, 3, 3, 3];[105.154520, 88.309408, 73.179755, 42.592913, 38.076008, 26.773490, 21.322733, 11.450486, 11.452736, 6.017261, 4.935803, 2.561338, 1.895353, 0.856942, 0.621841];[0.001880055510, -0.027688038810, -0.021337088544, 0.095827535250, 0.103874127578, -0.027805559957, -0.482377073838, 0.467510860871, 0.712382787724, -0.663269554866, -1.205848710105, 1.603216982445, 0.403121575954, -0.003862782924, 0.001772716700]
Protactinium;Pa;Actinide;Likely without hybridisation;91;0;91;1s^2 2s^2 2p^6 3s^2 3p^6 4s^2 3d^10 4p^6 5s^2 4d^10 5p^6 6s^2 4f^14 5d^10 6p^6 7s^2 5f^3;No special;6S;-25007,109683472;0,2162;6;2;7;0;2;[1, 1, 2, 2, 3, 3, 3, 4, 3, 3, 3, 3, 3, 3, 3];[105.154520, 88.309408, 73.179755, 42.592913, 38.076008, 26.773490, 21.322733, 11.450486, 11.452736, 6.017261, 4.935803, 2.561338, 1.895353, 0.856942, 0.621841];[-0.000742886384, 0.008077705026, 0.005759950418, -0.026530787851, -0.030544184520, 0.011381873593, 0.131712214446, -0.148346618631, -0.196577382226, 0.194527055403, 0.387711880715, -0.515332916746, -0.342441348948, 0.887128106659, 0.726657293737]
Protactinium;Pa;Actinide;Likely without hybridisation;91;0;91;1s^2 2s^2 2p^6 3s^2 3p^6 4s^2 3d^10 4p^6 5s^2 4d^10 5p^6 6s^2 4f^14 5d^10 6p^6 7s^2 5f^3;No special;6S;-25007,109683472;0,2162;6;2;2;1;6;[2, 2, 3, 3, 4, 4, 3, 3, 3, 3, 3, 3];[86.263329, 48.638467, 43.514489, 26.497383, 26.436470, 14.678283, 14.575967, 10.410317, 5.938724, 4.794282, 2.231963, 1.512972];[-0.012717015898, -1.834044667154, -0.640752223856, -0.079798741993, 0.049346440562, 0.020832420364, -0.024829987625, -0.007946634624, 0.001735708432, -0.000934480337, 0.000097244743, -0.000038456989]
Protactinium;Pa;Actinide;Likely without hybridisation;91;0;91;1s^2 2s^2 2p^6 3s^2 3p^6 4s^2 3d^10 4p^6 5s^2 4d^10 5p^6 6s^2 4f^14 5d^10 6p^6 7s^2 5f^3;No special;6S;-25007,109683472;0,2162;6;2;3;1;6;[2, 2, 3, 3, 4, 4, 3, 3, 3, 3, 3, 3];[86.263329, 48.638467, 43.514489, 26.497383, 26.436470, 14.678283, 14.575967, 10.410317, 5.938724, 4.794282, 2.231963, 1.512972];[-0.004038228790, -0.949455782312, -0.614884387427, 1.673566346656, 0.882636886466, -0.359081234200, 0.712339786333, 0.074427500885, -0.011854305610, 0.005455993453, -0.000472506571, 0.000181017292]
Protactinium;Pa;Actinide;Likely without hybridisation;91;0;91;1s^2 2s^2 2p^6 3s^2 3p^6 4s^2 3d^10 4p^6 5s^2 4d^10 5p^6 6s^2 4f^14 5d^10 6p^6 7s^2 5f^3;No special;6S;-25007,109683472;0,2162;6;2;4;1;6;[2, 2, 3, 3, 4, 4, 3, 3, 3, 3, 3, 3];[86.263329, 48.638467, 43.514489, 26.497383, 26.436470, 14.678283, 14.575967, 10.410317, 5.938724, 4.794282, 2.231963, 1.512972];[0.001298719462, 0.492871629104, 0.333925709389, -0.996139137626, -0.953877111298, 1.871677402817, -0.983497566013, 1.888929159076, 0.044236070112, -0.012168330195, 0.000503125193, -0.000203062700]
Protactinium;Pa;Actinide;Likely without hybridisation;91;0;91;1s^2 2s^2 2p^6 3s^2 3p^6 4s^2 3d^10 4p^6 5s^2 4d^10 5p^6 6s^2 4f^14 5d^10 6p^6 7s^2 5f^3;No special;6S;-25007,109683472;0,2162;6;2;5;1;6;[2, 2, 3, 3, 4, 4, 3, 3, 3, 3, 3, 3];[86.263329, 48.638467, 43.514489, 26.497383, 26.436470, 14.678283, 14.575967, 10.410317, 5.938724, 4.794282, 2.231963, 1.512972];[-0.000380160808, -0.234398287109, -0.155007140209, 0.500039325990, 0.591470204874, -0.344773029766, 0.903144749439, -3.615563456060, 2.109942944332, 1.723442366900, 0.025749036176, -0.005947361095]
Protactinium;Pa;Actinide;Likely without hybridisation;91;0;91;1s^2 2s^2 2p^6 3s^2 3p^6 4s^2 3d^10 4p^6 5s^2 4d^10 5p^6 6s^2 4f^14 5d^10 6p^6 7s^2 5f^3;No special;6S;-25007,109683472;0,2162;6;2;6;1;6;[2, 2, 3, 3, 4, 4, 3, 3, 3, 3, 3, 3];[86.263329, 48.638467, 43.514489, 26.497383, 26.436470, 14.678283, 14.575967, 10.410317, 5.938724, 4.794282, 2.231963, 1.512972];[0.000257931270, 0.091017405015, 0.062694689967, -0.196447607677, -0.220632889602, 0.195994207126, -0.443207734671, 1.561051239862, -0.438854991399, -2.084217913156, 2.579674243837, 0.612346471105]
Protactinium;Pa;Actinide;Likely without hybridisation;91;0;91;1s^2 2s^2 2p^6 3s^2 3p^6 4s^2 3d^10 4p^6 5s^2 4d^10 5p^6 6s^2 4f^14 5d^10 6p^6 7s^2 5f^3;No special;6S;-25007,109683472;0,2162;6;2;3;2;10;[3, 3, 4, 4, 4, 4, 4, 4, 4, 4, 4];[58.112116, 33.309553, 27.538253, 18.230484, 14.427148, 11.238129, 7.505177, 5.250125, 3.548260, 1.994271, 1.159970];[0.009508020241, 1.427399009535, 1.584452580844, 0.500628398303, -0.189227532907, 0.067550361782, -0.015553978899, 0.005972910045, -0.001775302678, 0.000395284708, -0.000111312174]
Protactinium;Pa;Actinide;Likely without hybridisation;91;0;91;1s^2 2s^2 2p^6 3s^2 3p^6 4s^2 3d^10 4p^6 5s^2 4d^10 5p^6 6s^2 4f^14 5d^10 6p^6 7s^2 5f^3;No special;6S;-25007,109683472;0,2162;6;2;4;2;10;[3, 3, 4, 4, 4, 4, 4, 4, 4, 4, 4];[58.112116, 33.309553, 27.538253, 18.230484, 14.427148, 11.238129, 7.505177, 5.250125, 3.548260, 1.994271, 1.159970];[-0.003571792617, -0.793738649713, -0.999087474131, 0.202363950535, 1.640210176776, 1.641204080645, 0.157616140505, -0.022587516871, 0.004808559410, -0.001078652910, 0.000245076519]
Protactinium;Pa;Actinide;Likely without hybridisation;91;0;91;1s^2 2s^2 2p^6 3s^2 3p^6 4s^2 3d^10 4p^6 5s^2 4d^10 5p^6 6s^2 4f^14 5d^10 6p^6 7s^2 5f^3;No special;6S;-25007,109683472;0,2162;6;2;5;2;10;[3, 3, 4, 4, 4, 4, 4, 4, 4, 4, 4];[58.112116, 33.309553, 27.538253, 18.230484, 14.427148, 11.238129, 7.505177, 5.250125, 3.548260, 1.994271, 1.159970];[0.001813882466, 0.346382929556, 0.466096326254, -0.248628072703, -0.560252827358, -1.600605495132, 1.108861832143, 2.459133838230, 0.479403823104, 0.000135977939, -0.000319706271]
Protactinium;Pa;Actinide;Likely without hybridisation;91;0;91;1s^2 2s^2 2p^6 3s^2 3p^6 4s^2 3d^10 4p^6 5s^2 4d^10 5p^6 6s^2 4f^14 5d^10 6p^6 7s^2 5f^3;No special;6S;-25007,109683472;0,2162;6;2;6;2;1;[3, 3, 4, 4, 4, 4, 4, 4, 4, 4, 4];[58.112116, 33.309553, 27.538253, 18.230484, 14.427148, 11.238129, 7.505177, 5.250125, 3.548260, 1.994271, 1.159970];[-0.000083600000, -0.032783300000, -0.041976100000, 0.011569800000, 0.085098700000, 0.122237000000, -0.069780800000, -0.388199500000, 0.061038300000, 0.675925200000, 0.420450500000]
Protactinium;Pa;Actinide;Likely without hybridisation;91;0;91;1s^2 2s^2 2p^6 3s^2 3p^6 4s^2 3d^10 4p^6 5s^2 4d^10 5p^6 6s^2 4f^14 5d^10 6p^6 7s^2 5f^3;No special;6S;-25007,109683472;0,2162;6;2;4;3;14;[4, 4, 4, 5, 4, 4, 4, 4];[31.632165, 19.500417, 12.787924, 8.093836, 7.520518, 4.364677, 2.642847, 1.592222];[0.065131778463, 0.940450991702, 1.985931054582, -1.069219008170, 2.116402273493, 0.002243871935, 0.000093167269, 0.000072588153]
Protactinium;Pa;Actinide;Likely without hybridisation;91;0;91;1s^2 2s^2 2p^6 3s^2 3p^6 4s^2 3d^10 4p^6 5s^2 4d^10 5p^6 6s^2 4f^14 5d^10 6p^6 7s^2 5f^3;No special;6S;-25007,109683472;0,2162;6;2;5;3;2;[4, 4, 4, 5, 4, 4, 4, 4];[31.632165, 19.500417, 12.787924, 8.093836, 7.520518, 4.364677, 2.642847, 1.592222];[-0.007137111585, -0.121561979445, -0.220648711271, 0.347479060500, -0.308571924079, 0.753404597685, 0.600142031290, 0.165271785124]
Uranium;U;Actinide;Likely without hybridisation;92;0;92;1s^2 2s^2 2p^6 3s^2 3p^6 4s^2 3d^10 4p^6 5s^2 4d^10 5p^6 6s^2 4f^14 5d^10 6p^6 7s^2 5f^4;No special;5D;-25664,33807536;0,2224;6;2;1;0;2;[1, 1, 2, 2, 3, 3, 3, 4, 3, 3, 3, 3, 3, 3, 3];[105.948569, 89.207514, 73.824657, 43.135437, 38.435041, 27.065952, 21.462052, 11.698336, 11.694677, 6.183263, 5.092883, 2.598643, 1.915613, 0.863923, 0.624455];[0.185956072687, 1.231355748758, -0.003958808025, 0.004825579518, -0.003986243768, 0.003810739865, -0.002744422839, -0.001131512271, 0.001452680171, 0.000612920158, -0.000410404776, 0.000084287128, -0.000047658997, 0.000012303658, -0.000006363961]
Uranium;U;Actinide;Likely without hybridisation;92;0;92;1s^2 2s^2 2p^6 3s^2 3p^6 4s^2 3d^10 4p^6 5s^2 4d^10 5p^6 6s^2 4f^14 5d^10 6p^6 7s^2 5f^4;No special;5D;-25664,33807536;0,2224;6;2;2;0;2;[1, 1, 2, 2, 3, 3, 3, 4, 3, 3, 3, 3, 3, 3, 3];[105.948569, 89.207514, 73.824657, 43.135437, 38.435041, 27.065952, 21.462052, 11.698336, 11.694677, 6.183263, 5.092883, 2.598643, 1.915613, 0.863923, 0.624455];[0.050997248166, -0.559757324538, -0.359731806805, 1.675018443484, 0.137579786516, -0.003269944599, 0.002278863734, 0.001001546045, -0.001562423144, -0.000348886486, 0.000239567777, -0.000049638896, 0.000027152900, -0.000006929646, 0.000003535534]
Uranium;U;Actinide;Likely without hybridisation;92;0;92;1s^2 2s^2 2p^6 3s^2 3p^6 4s^2 3d^10 4p^6 5s^2 4d^10 5p^6 6s^2 4f^14 5d^10 6p^6 7s^2 5f^4;No special;5D;-25664,33807536;0,2224;6;2;3;0;2;[1, 1, 2, 2, 3, 3, 3, 4, 3, 3, 3, 3, 3, 3, 3];[105.948569, 89.207514, 73.824657, 43.135437, 38.435041, 27.065952, 21.462052, 11.698336, 11.694677, 6.183263, 5.092883, 2.598643, 1.915613, 0.863923, 0.624455];[-0.014759722686, 0.257023132624, 0.203951798847, -0.900373065199, -0.734779970754, 1.166109309002, 0.964443869221, -0.010254321119, 0.024748313077, 0.000082024387, -0.000137885822, 0.000013859293, 0.000008626703, -0.000004101219, 0.000002262742]
Uranium;U;Actinide;Likely without hybridisation;92;0;92;1s^2 2s^2 2p^6 3s^2 3p^6 4s^2 3d^10 4p^6 5s^2 4d^10 5p^6 6s^2 4f^14 5d^10 6p^6 7s^2 5f^4;No special;5D;-25664,33807536;0,2224;6;2;4;0;2;[1, 1, 2, 2, 3, 3, 3, 4, 3, 3, 3, 3, 3, 3, 3];[105.948569, 89.207514, 73.824657, 43.135437, 38.435041, 27.065952, 21.462052, 11.698336, 11.694677, 6.183263, 5.092883, 2.598643, 1.915613, 0.863923, 0.624455];[0.007676634059, -0.133215664884, -0.107107302624, 0.471961249530, 0.471169007092, -0.282819095108, -1.889812027764, -0.150958246817, 2.389696641241, 0.052155771916, -0.019417010790, 0.001281701752, -0.000677973982, 0.000119642467, -0.000057982756]
Uranium;U;Actinide;Likely without hybridisation;92;0;92;1s^2 2s^2 2p^6 3s^2 3p^6 4s^2 3d^10 4p^6 5s^2 4d^10 5p^6 6s^2 4f^14 5d^10 6p^6 7s^2 5f^4;No special;5D;-25664,33807536;0,2224;6;2;5;0;2;[1, 1, 2, 2, 3, 3, 3, 4, 3, 3, 3, 3, 3, 3, 3];[105.948569, 89.207514, 73.824657, 43.135437, 38.435041, 27.065952, 21.462052, 11.698336, 11.694677, 6.183263, 5.092883, 2.598643, 1.915613, 0.863923, 0.624455];[-0.006076451413, 0.068486685870, 0.049967700693, -0.227112091515, -0.258858640406, 0.128083342445, 1.071550040474, -0.878498858344, -1.544259691821, 1.805134859346, 0.599684533202, 0.008879564115, -0.001133350749, 0.000150048059, -0.000063215346]
Uranium;U;Actinide;Likely without hybridisation;92;0;92;1s^2 2s^2 2p^6 3s^2 3p^6 4s^2 3d^10 4p^6 5s^2 4d^10 5p^6 6s^2 4f^14 5d^10 6p^6 7s^2 5f^4;No special;5D;-25664,33807536;0,2224;6;2;6;0;2;[1, 1, 2, 2, 3, 3, 3, 4, 3, 3, 3, 3, 3, 3, 3];[105.948569, 89.207514, 73.824657, 43.135437, 38.435041, 27.065952, 21.462052, 11.698336, 11.694677, 6.183263, 5.092883, 2.598643, 1.915613, 0.863923, 0.624455];[0.002082853735, -0.028213560569, -0.021586555816, 0.096626707335, 0.107666906931, -0.040289247336, -0.480287290457, 0.499852227986, 0.703449200650, -0.627662627213, -1.237896203642, 1.600450215031, 0.389320690063, -0.004094855370, 0.001854316823]