Element name;Symbol;clasificacion;Possible hybridization;Z;Q;N;Complete electronic configuration;Special configuration;Config;Energy;Ionization;Valence_n;Valence_l;n;l;mz;N_list;A_list;C_list
Radon;Rn;Noble gas;sp3;86;0;86;1s^2 2s^2 2p^6 3s^2 3p^6 4s^2 3d^10 4p^6 5s^2 4d^10 5p^6 6s^2 4f^14 5d^10 6p^6;Noble gas;1S;-21866,772070663;0,3952;6;1;3;0;2;[1, 1, 2, 2, 3, 3, 3, 4, 3, 3, 3, 3, 3];[110.161562, 85.019704, 70.796388, 40.050427, 37.065897, 24.761481, 20.686346, 14.330607, 10.794813, 5.057300, 4.066550, 2.209589, 1.500547];[-0.006302867005, 0.237987959495, 0.191045403034, -0.855739919485, -0.625659959388, 0.817559688835, 1.176456543952, 0.057163643562, -0.030051755358, 0.002954574975, -0.002265428706, 0.000449295649, -0.000148775267]
Radon;Rn;Noble gas;sp3;86;0;86;1s^2 2s^2 2p^6 3s^2 3p^6 4s^2 3d^10 4p^6 5s^2 4d^10 5p^6 6s^2 4f^14 5d^10 6p^6;Noble gas;1S;-21866,772070663;0,3952;6;1;4;0;2;[1, 1, 2, 2, 3, 3, 3, 4, 3, 3, 3, 3, 3];[110.161562, 85.019704, 70.796388, 40.050427, 37.065897, 24.761481, 20.686346, 14.330607, 10.794813, 5.057300, 4.066550, 2.209589, 1.500547];[0.002702844960, -0.120342503090, -0.099489924113, 0.442588316682, 0.378344271499, 0.144943313693, -2.101948729025, -0.128672928079, 2.276587981943, 0.049842401371, -0.023143604948, 0.002707087601, -0.000907218000]
Radon;Rn;Noble gas;sp3;86;0;86;1s^2 2s^2 2p^6 3s^2 3p^6 4s^2 3d^10 4p^6 5s^2 4d^10 5p^6 6s^2 4f^14 5d^10 6p^6;Noble gas;1S;-21866,772070663;0,3952;6;1;5;0;2;[1, 1, 2, 2, 3, 3, 3, 4, 3, 3, 3, 3, 3];[110.161562, 85.019704, 70.796388, 40.050427, 37.065897, 24.761481, 20.686346, 14.330607, 10.794813, 5.057300, 4.066550, 2.209589, 1.500547];[-0.001113127495, 0.055752824112, 0.046926010163, -0.207862240768, -0.173986593359, -0.303995953255, 1.615980542688, 1.202086902029, -3.346128566367, 1.872464859944, 0.209272211690, 0.011153619524, -0.001252427531]
Radon;Rn;Noble gas;sp3;86;0;86;1s^2 2s^2 2p^6 3s^2 3p^6 4s^2 3d^10 4p^6 5s^2 4d^10 5p^6 6s^2 4f^14 5d^10 6p^6;Noble gas;1S;-21866,772070663;0,3952;6;1;6;0;2;[1, 1, 2, 2, 3, 3, 3, 4, 3, 3, 3, 3, 3];[110.161562, 85.019704, 70.796388, 40.050427, 37.065897, 24.761481, 20.686346, 14.330607, 10.794813, 5.057300, 4.066550, 2.209589, 1.500547];[0.000131097597, -0.020121006301, -0.017898004003, 0.077909590837, 0.060935068290, 0.146192629954, -0.672963281729, -0.577321291298, 1.498371855835, -0.749871043678, -0.639743405149, 1.118965368529, 0.742985662107]
Radon;Rn;Noble gas;sp3;86;0;86;1s^2 2s^2 2p^6 3s^2 3p^6 4s^2 3d^10 4p^6 5s^2 4d^10 5p^6 6s^2 4f^14 5d^10 6p^6;Noble gas;1S;-21866,772070663;0,3952;6;1;2;1;6;[2, 2, 3, 3, 4, 4, 3, 3, 3, 3, 3, 3];[80.413094, 45.595893, 40.661311, 24.299025, 24.298213, 13.697119, 13.696884, 9.640567, 4.991556, 3.885248, 1.877545, 1.190797];[-0.014902450646, -1.854730363083, -0.622476335936, -0.071998096959, 0.046777905618, 0.018228122870, -0.023993731826, -0.005908414209, 0.000960934826, -0.000552114988, 0.000080343264, -0.000028903979]
Radon;Rn;Noble gas;sp3;86;0;86;1s^2 2s^2 2p^6 3s^2 3p^6 4s^2 3d^10 4p^6 5s^2 4d^10 5p^6 6s^2 4f^14 5d^10 6p^6;Noble gas;1S;-21866,772070663;0,3952;6;1;3;1;6;[2, 2, 3, 3, 4, 4, 3, 3, 3, 3, 3, 3];[80.413094, 45.595893, 40.661311, 24.299025, 24.298213, 13.697119, 13.696884, 9.640567, 4.991556, 3.885248, 1.877545, 1.190797];[-0.004630760359, -0.954949987805, -0.610129927836, 1.882261892945, 0.722284224791, -0.267137922062, 0.603679686497, 0.045466938708, -0.005012145912, 0.002289048165, -0.000276792341, 0.000095530100]
Radon;Rn;Noble gas;sp3;86;0;86;1s^2 2s^2 2p^6 3s^2 3p^6 4s^2 3d^10 4p^6 5s^2 4d^10 5p^6 6s^2 4f^14 5d^10 6p^6;Noble gas;1S;-21866,772070663;0,3952;6;1;4;1;6;[2, 2, 3, 3, 4, 4, 3, 3, 3, 3, 3, 3];[80.413094, 45.595893, 40.661311, 24.299025, 24.298213, 13.697119, 13.696884, 9.640567, 4.991556, 3.885248, 1.877545, 1.190797];[0.001489289764, 0.487093037852, 0.327419129785, -1.138440774539, -0.873648238906, 1.452424698034, -0.729081558827, 2.122231299525, 0.044596145104, -0.014081626633, 0.001185063138, -0.000417148103]
Radon;Rn;Noble gas;sp3;86;0;86;1s^2 2s^2 2p^6 3s^2 3p^6 4s^2 3d^10 4p^6 5s^2 4d^10 5p^6 6s^2 4f^14 5d^10 6p^6;Noble gas;1S;-21866,772070663;0,3952;6;1;5;1;6;[2, 2, 3, 3, 4, 4, 3, 3, 3, 3, 3, 3];[80.413094, 45.595893, 40.661311, 24.299025, 24.298213, 13.697119, 13.696884, 9.640567, 4.991556, 3.885248, 1.877545, 1.190797];[-0.000398776930, -0.218445495261, -0.142786390933, 0.545319858528, 0.531168666386, -0.118636871559, 0.548126973773, -3.095832192130, 2.436140023685, 1.067697306227, 0.019785508448, -0.002672638258]
Radon;Rn;Noble gas;sp3;86;0;86;1s^2 2s^2 2p^6 3s^2 3p^6 4s^2 3d^10 4p^6 5s^2 4d^10 5p^6 6s^2 4f^14 5d^10 6p^6;Noble gas;1S;-21866,772070663;0,3952;6;1;6;1;6;[2, 2, 3, 3, 4, 4, 3, 3, 3, 3, 3, 3];[80.413094, 45.595893, 40.661311, 24.299025, 24.298213, 13.697119, 13.696884, 9.640567, 4.991556, 3.885248, 1.877545, 1.190797];[0.000218494485, 0.070346895923, 0.047833145799, -0.178080108841, -0.164046247258, 0.069789147109, -0.233593384780, 1.104683376598, -0.742280389357, -1.093606294083, 1.712141645972, 1.283903722914]
Radon;Rn;Noble gas;sp3;86;0;86;1s^2 2s^2 2p^6 3s^2 3p^6 4s^2 3d^10 4p^6 5s^2 4d^10 5p^6 6s^2 4f^14 5d^10 6p^6;Noble gas;1S;-21866,772070663;0,3952;6;1;3;2;10;[3, 3, 4, 4, 4, 4, 4, 4, 4];[52.058235, 30.769357, 25.372633, 16.878426, 12.915741, 9.793952, 6.388020, 4.266585, 2.711132];[0.015417368504, 1.483264439135, 1.559514542988, 0.413344791466, -0.114059560469, 0.039562307123, -0.008220973233, 0.002513062057, -0.000507861792]
Radon;Rn;Noble gas;sp3;86;0;86;1s^2 2s^2 2p^6 3s^2 3p^6 4s^2 3d^10 4p^6 5s^2 4d^10 5p^6 6s^2 4f^14 5d^10 6p^6;Noble gas;1S;-21866,772070663;0,3952;6;1;4;2;10;[3, 3, 4, 4, 4, 4, 4, 4, 4];[52.058235, 30.769357, 25.372633, 16.878426, 12.915741, 9.793952, 6.388020, 4.266585, 2.711132];[-0.006226524713, -0.804592219098, -0.958401609756, 0.339128980832, 1.804340925489, 1.411384919236, 0.097593264465, -0.009412203228, 0.001058414333]
Radon;Rn;Noble gas;sp3;86;0;86;1s^2 2s^2 2p^6 3s^2 3p^6 4s^2 3d^10 4p^6 5s^2 4d^10 5p^6 6s^2 4f^14 5d^10 6p^6;Noble gas;1S;-21866,772070663;0,3952;6;1;5;2;10;[3, 3, 4, 4, 4, 4, 4, 4, 4];[52.058235, 30.769357, 25.372633, 16.878426, 12.915741, 9.793952, 6.388020, 4.266585, 2.711132];[0.002683192595, 0.318914437117, 0.403982552225, -0.254319540036, -0.685029346817, -1.188276111023, 1.308974557212, 2.244315573359, 0.410537005132]
Radon;Rn;Noble gas;sp3;86;0;86;1s^2 2s^2 2p^6 3s^2 3p^6 4s^2 3d^10 4p^6 5s^2 4d^10 5p^6 6s^2 4f^14 5d^10 6p^6;Noble gas;1S;-21866,772070663;0,3952;6;1;4;3;14;[4, 4, 4, 5, 4, 4];[29.091519, 17.792862, 11.693545, 7.686730, 7.106004, 4.841159];[0.073470061949, 0.951126314392, 1.798310134911, -0.951233325793, 2.187978682639, 0.037236600147]
Francium;Fr;Alkali metal;Likely without hybridisation;87;0;87;1s^2 2s^2 2p^6 3s^2 3p^6 4s^2 3d^10 4p^6 5s^2 4d^10 5p^6 6s^2 4f^14 5d^10 6p^6 7s^1;Half orbital;2D;-22475,85853026;0,1471;7;0;1;0;2;[1, 1, 2, 2, 3, 3, 3, 4, 3, 3, 3, 3, 3, 3, 3];[101.978322, 84.676698, 70.148749, 40.722793, 36.564250, 25.685340, 20.647336, 10.669335, 10.668939, 5.409521, 4.319102, 2.279605, 1.670162, 0.557011, 0.310522];[0.148353265435, 1.267232932622, -0.001579110864, 0.004417578905, -0.003602709050, 0.003292289173, -0.002231770423, -0.000754341514, 0.000974958830, 0.000355391868, -0.000238860671, 0.000055720014, -0.000026162951, 0.000002969848, -0.000001414214]
Francium;Fr;Alkali metal;Likely without hybridisation;87;0;87;1s^2 2s^2 2p^6 3s^2 3p^6 4s^2 3d^10 4p^6 5s^2 4d^10 5p^6 6s^2 4f^14 5d^10 6p^6 7s^1;Half orbital;2D;-22475,85853026;0,1471;7;0;2;0;2;[1, 1, 2, 2, 3, 3, 3, 4, 3, 3, 3, 3, 3, 3, 3];[101.978322, 84.676698, 70.148749, 40.722793, 36.564250, 25.685340, 20.647336, 10.669335, 10.668939, 5.409521, 4.319102, 2.279605, 1.670162, 0.557011, 0.310522];[0.042578010565, -0.545817562876, -0.356888530437, 1.659066114500, 0.143609427461, 0.001958685784, -0.000163907352, 0.000338986991, -0.000641487272, -0.000041436457, 0.000037476659, -0.000010182338, 0.000004242641, -0.000000424264, 0.000000282843]
Francium;Fr;Alkali metal;Likely without hybridisation;87;0;87;1s^2 2s^2 2p^6 3s^2 3p^6 4s^2 3d^10 4p^6 5s^2 4d^10 5p^6 6s^2 4f^14 5d^10 6p^6 7s^1;Half orbital;2D;-22475,85853026;0,1471;7;0;3;0;2;[1, 1, 2, 2, 3, 3, 3, 4, 3, 3, 3, 3, 3, 3, 3];[101.978322, 84.676698, 70.148749, 40.722793, 36.564250, 25.685340, 20.647336, 10.669335, 10.668939, 5.409521, 4.319102, 2.279605, 1.670162, 0.557011, 0.310522];[-0.012885748295, 0.251576854774, 0.198752018421, -0.882289516377, -0.695646135898, 0.947111833486, 1.125117056104, -0.024470137270, 0.048491403155, 0.004122856798, -0.002642882305, 0.000535138412, -0.000232779552, 0.000024607316, -0.000011596551]
Francium;Fr;Alkali metal;Likely without hybridisation;87;0;87;1s^2 2s^2 2p^6 3s^2 3p^6 4s^2 3d^10 4p^6 5s^2 4d^10 5p^6 6s^2 4f^14 5d^10 6p^6 7s^1;Half orbital;2D;-22475,85853026;0,1471;7;0;4;0;2;[1, 1, 2, 2, 3, 3, 3, 4, 3, 3, 3, 3, 3, 3, 3];[101.978322, 84.676698, 70.148749, 40.722793, 36.564250, 25.685340, 20.647336, 10.669335, 10.668939, 5.409521, 4.319102, 2.279605, 1.670162, 0.557011, 0.310522];[0.005465369733, -0.126948860325, -0.104525938609, 0.459262460268, 0.421757375173, -0.085479734615, -1.915679973719, -0.173079233938, 2.306706488181, 0.048552355759, -0.019159482500, 0.002266842919, -0.001025163411, 0.000092206724, -0.000042284986]
Francium;Fr;Alkali metal;Likely without hybridisation;87;0;87;1s^2 2s^2 2p^6 3s^2 3p^6 4s^2 3d^10 4p^6 5s^2 4d^10 5p^6 6s^2 4f^14 5d^10 6p^6 7s^1;Half orbital;2D;-22475,85853026;0,1471;7;0;5;0;2;[1, 1, 2, 2, 3, 3, 3, 4, 3, 3, 3, 3, 3, 3, 3];[101.978322, 84.676698, 70.148749, 40.722793, 36.564250, 25.685340, 20.647336, 10.669335, 10.668939, 5.409521, 4.319102, 2.279605, 1.670162, 0.557011, 0.310522];[-0.004417013219, 0.062177172062, 0.046854592378, -0.211844383317, -0.219831720096, 0.014621129757, 1.046489751885, -0.651103358431, -1.466575526627, 1.790011542353, 0.441162789411, 0.004316179792, 0.000658316413, -0.000053881537, 0.000020788939]
Francium;Fr;Alkali metal;Likely without hybridisation;87;0;87;1s^2 2s^2 2p^6 3s^2 3p^6 4s^2 3d^10 4p^6 5s^2 4d^10 5p^6 6s^2 4f^14 5d^10 6p^6 7s^1;Half orbital;2D;-22475,85853026;0,1471;7;0;6;0;2;[1, 1, 2, 2, 3, 3, 3, 4, 3, 3, 3, 3, 3, 3, 3];[101.978322, 84.676698, 70.148749, 40.722793, 36.564250, 25.685340, 20.647336, 10.669335, 10.668939, 5.409521, 4.319102, 2.279605, 1.670162, 0.557011, 0.310522];[0.001295702466, -0.023621184868, -0.018765906866, 0.083416114184, 0.083758919552, 0.007132444680, -0.431247031019, 0.338485935036, 0.617760021007, -0.699727414818, -0.858985539611, 1.211297392118, 0.680755881300, 0.000621971125, 0.000274781695]
Francium;Fr;Alkali metal;Likely without hybridisation;87;0;87;1s^2 2s^2 2p^6 3s^2 3p^6 4s^2 3d^10 4p^6 5s^2 4d^10 5p^6 6s^2 4f^14 5d^10 6p^6 7s^1;Half orbital;2D;-22475,85853026;0,1471;7;0;7;0;1;[1, 1, 2, 2, 3, 3, 3, 4, 3, 3, 3, 3, 3, 3, 3];[101.978322, 84.676698, 70.148749, 40.722793, 36.564250, 25.685340, 20.647336, 10.669335, 10.668939, 5.409521, 4.319102, 2.279605, 1.670162, 0.557011, 0.310522];[-0.000453700000, 0.004225700000, 0.002798800000, -0.013229000000, -0.015344200000, 0.003124800000, 0.066314500000, -0.068133200000, -0.096986100000, 0.137024800000, 0.139296000000, -0.207229300000, -0.215386600000, 1.049218400000, 0.015192400000]
Francium;Fr;Alkali metal;Likely without hybridisation;87;0;87;1s^2 2s^2 2p^6 3s^2 3p^6 4s^2 3d^10 4p^6 5s^2 4d^10 5p^6 6s^2 4f^14 5d^10 6p^6 7s^1;Half orbital;2D;-22475,85853026;0,1471;7;0;2;1;6;[2, 2, 3, 3, 4, 4, 3, 3, 3, 3, 3, 3];[81.894857, 46.267422, 41.274041, 24.715008, 24.713525, 13.785538, 13.784914, 9.739078, 5.219959, 4.136671, 1.942765, 1.331098];[-0.014014265665, -1.845246183748, -0.632354393222, -0.073930744366, 0.047108341784, 0.018537738373, -0.023348536228, -0.006542342154, 0.001207108545, -0.000684632383, 0.000093570508, -0.000038946887]
Francium;Fr;Alkali metal;Likely without hybridisation;87;0;87;1s^2 2s^2 2p^6 3s^2 3p^6 4s^2 3d^10 4p^6 5s^2 4d^10 5p^6 6s^2 4f^14 5d^10 6p^6 7s^1;Half orbital;2D;-22475,85853026;0,1471;7;0;3;1;6;[2, 2, 3, 3, 4, 4, 3, 3, 3, 3, 3, 3];[81.894857, 46.267422, 41.274041, 24.715008, 24.713525, 13.785538, 13.784914, 9.739078, 5.219959, 4.136671, 1.942765, 1.331098];[-0.004400753272, -0.950803491569, -0.613593996231, 1.844044219131, 0.757637465300, -0.287590671517, 0.616190700307, 0.055125521712, -0.007080739999, 0.003316609112, -0.000377466369, 0.000151378466]
Francium;Fr;Alkali metal;Likely without hybridisation;87;0;87;1s^2 2s^2 2p^6 3s^2 3p^6 4s^2 3d^10 4p^6 5s^2 4d^10 5p^6 6s^2 4f^14 5d^10 6p^6 7s^1;Half orbital;2D;-22475,85853026;0,1471;7;0;4;1;6;[2, 2, 3, 3, 4, 4, 3, 3, 3, 3, 3, 3];[81.894857, 46.267422, 41.274041, 24.715008, 24.713525, 13.785538, 13.784914, 9.739078, 5.219959, 4.136671, 1.942765, 1.331098];[0.001398413694, 0.486797629389, 0.329716996113, -1.116038966097, -0.898399842859, 1.576872739059, -0.704907544556, 1.977806934801, 0.043706245480, -0.013372744302, 0.000936684878, -0.000383345145]
Francium;Fr;Alkali metal;Likely without hybridisation;87;0;87;1s^2 2s^2 2p^6 3s^2 3p^6 4s^2 3d^10 4p^6 5s^2 4d^10 5p^6 6s^2 4f^14 5d^10 6p^6 7s^1;Half orbital;2D;-22475,85853026;0,1471;7;0;5;1;6;[2, 2, 3, 3, 4, 4, 3, 3, 3, 3, 3, 3];[81.894857, 46.267422, 41.274041, 24.715008, 24.713525, 13.785538, 13.784914, 9.739078, 5.219959, 4.136671, 1.942765, 1.331098];[-0.000391428461, -0.221453958563, -0.146378077743, 0.539550330388, 0.543982927026, -0.204354805516, 0.597526568263, -3.164955322977, 2.276609165819, 1.309561638072, 0.024124779528, -0.005263218610]
Francium;Fr;Alkali metal;Likely without hybridisation;87;0;87;1s^2 2s^2 2p^6 3s^2 3p^6 4s^2 3d^10 4p^6 5s^2 4d^10 5p^6 6s^2 4f^14 5d^10 6p^6 7s^1;Half orbital;2D;-22475,85853026;0,1471;7;0;6;1;6;[2, 2, 3, 3, 4, 4, 3, 3, 3, 3, 3, 3];[81.894857, 46.267422, 41.274041, 24.715008, 24.713525, 13.785538, 13.784914, 9.739078, 5.219959, 4.136671, 1.942765, 1.331098];[0.000230252036, 0.077561133113, 0.053253376702, -0.191456037480, -0.183220118117, 0.113816275745, -0.273638622891, 1.225181615413, -0.648644724756, -1.415843283369, 2.005321073286, 1.034291165115]
Francium;Fr;Alkali metal;Likely without hybridisation;87;0;87;1s^2 2s^2 2p^6 3s^2 3p^6 4s^2 3d^10 4p^6 5s^2 4d^10 5p^6 6s^2 4f^14 5d^10 6p^6 7s^1;Half orbital;2D;-22475,85853026;0,1471;7;0;3;2;10;[3, 3, 4, 4, 4, 4, 4, 4, 4];[53.149130, 31.255929, 25.782513, 17.066339, 13.175203, 10.104259, 6.779322, 4.560110, 2.969156];[0.014185661356, 1.474481529162, 1.566198965506, 0.430435321080, -0.136066799389, 0.049205356620, -0.010561691157, 0.003020923849, -0.000599884072]
Francium;Fr;Alkali metal;Likely without hybridisation;87;0;87;1s^2 2s^2 2p^6 3s^2 3p^6 4s^2 3d^10 4p^6 5s^2 4d^10 5p^6 6s^2 4f^14 5d^10 6p^6 7s^1;Half orbital;2D;-22475,85853026;0,1471;7;0;4;2;10;[3, 3, 4, 4, 4, 4, 4, 4, 4];[53.149130, 31.255929, 25.782513, 17.066339, 13.175203, 10.104259, 6.779322, 4.560110, 2.969156];[-0.005647195446, -0.804228873395, -0.967331249413, 0.335351640167, 1.754586913695, 1.442000510403, 0.118722338879, -0.009906150998, 0.001027740240]
Francium;Fr;Alkali metal;Likely without hybridisation;87;0;87;1s^2 2s^2 2p^6 3s^2 3p^6 4s^2 3d^10 4p^6 5s^2 4d^10 5p^6 6s^2 4f^14 5d^10 6p^6 7s^1;Half orbital;2D;-22475,85853026;0,1471;7;0;5;2;10;[3, 3, 4, 4, 4, 4, 4, 4, 4];[53.149130, 31.255929, 25.782513, 17.066339, 13.175203, 10.104259, 6.779322, 4.560110, 2.969156];[0.002544052378, 0.326793251907, 0.419133024495, -0.273027258446, -0.633703999254, -1.311644468240, 1.164613103520, 2.357286677857, 0.477244936145]
Francium;Fr;Alkali metal;Likely without hybridisation;87;0;87;1s^2 2s^2 2p^6 3s^2 3p^6 4s^2 3d^10 4p^6 5s^2 4d^10 5p^6 6s^2 4f^14 5d^10 6p^6 7s^1;Half orbital;2D;-22475,85853026;0,1471;7;0;4;3;14;[4, 4, 4, 5, 4, 4];[29.655976, 18.197881, 12.033467, 7.920612, 7.290968, 4.727672];[0.070591979088, 0.931064295816, 1.778475609104, -1.074608117305, 2.353260411048, 0.020304477975]
Radium;Ra;Alkaline earth metal;Likely without hybridisation;88;0;88;1s^2 2s^2 2p^6 3s^2 3p^6 4s^2 3d^10 4p^6 5s^2 4d^10 5p^6 6s^2 4f^14 5d^10 6p^6 7s^2;Full orbital;3F;-23094,303492621;0,1941;7;0;1;0;2;[1, 1, 2, 2, 3, 3, 3, 4, 3, 3, 3, 3, 3, 3, 3];[102.772371, 85.593215, 70.820905, 41.242337, 36.905364, 25.990833, 20.824259, 10.834095, 10.835315, 5.559242, 4.498561, 2.306842, 1.710801, 0.761325, 0.569949];[0.155104013875, 1.260787371469, -0.001991636960, 0.004456752620, -0.003650792311, 0.003371485133, -0.002298238460, -0.000825476456, 0.001048497935, 0.000429638080, -0.000294156421, 0.000074246212, -0.000043274935, 0.000012162237, -0.000006788225]
Radium;Ra;Alkaline earth metal;Likely without hybridisation;88;0;88;1s^2 2s^2 2p^6 3s^2 3p^6 4s^2 3d^10 4p^6 5s^2 4d^10 5p^6 6s^2 4f^14 5d^10 6p^6 7s^2;Full orbital;3F;-23094,303492621;0,1941;7;0;2;0;2;[1, 1, 2, 2, 3, 3, 3, 4, 3, 3, 3, 3, 3, 3, 3];[102.772371, 85.593215, 70.820905, 41.242337, 36.905364, 25.990833, 20.824259, 10.834095, 10.835315, 5.559242, 4.498561, 2.306842, 1.710801, 0.761325, 0.569949];[0.045025731399, -0.549565935923, -0.358604537174, 1.661514401020, 0.145628783007, -0.000695793073, 0.001116804450, 0.000658740677, -0.001066458447, -0.000193040151, 0.000140148564, -0.000036486710, 0.000020506097, -0.000005656854, 0.000003111270]
Radium;Ra;Alkaline earth metal;Likely without hybridisation;88;0;88;1s^2 2s^2 2p^6 3s^2 3p^6 4s^2 3d^10 4p^6 5s^2 4d^10 5p^6 6s^2 4f^14 5d^10 6p^6 7s^2;Full orbital;3F;-23094,303492621;0,1941;7;0;3;0;2;[1, 1, 2, 2, 3, 3, 3, 4, 3, 3, 3, 3, 3, 3, 3];[102.772371, 85.593215, 70.820905, 41.242337, 36.905364, 25.990833, 20.824259, 10.834095, 10.835315, 5.559242, 4.498561, 2.306842, 1.710801, 0.761325, 0.569949];[-0.013638392753, 0.253147763199, 0.200574374017, -0.885995038753, -0.708185543292, 0.992589971803, 1.094892625271, -0.022208526941, 0.044310563600, 0.003828558956, -0.002499198207, 0.000538249682, -0.000290620887, 0.000076367532, -0.000042143564]
Radium;Ra;Alkaline earth metal;Likely without hybridisation;88;0;88;1s^2 2s^2 2p^6 3s^2 3p^6 4s^2 3d^10 4p^6 5s^2 4d^10 5p^6 6s^2 4f^14 5d^10 6p^6 7s^2;Full orbital;3F;-23094,303492621;0,1941;7;0;4;0;2;[1, 1, 2, 2, 3, 3, 3, 4, 3, 3, 3, 3, 3, 3, 3];[102.772371, 85.593215, 70.820905, 41.242337, 36.905364, 25.990833, 20.824259, 10.834095, 10.835315, 5.559242, 4.498561, 2.306842, 1.710801, 0.761325, 0.569949];[0.006035580641, -0.128388246889, -0.105545445166, 0.462088200387, 0.433705641297, -0.125693604367, -1.909042362364, -0.194986816233, 2.344451423897, 0.052162842984, -0.021338219915, 0.002503582269, -0.001376878324, 0.000315511046, -0.000170978420]
Radium;Ra;Alkaline earth metal;Likely without hybridisation;88;0;88;1s^2 2s^2 2p^6 3s^2 3p^6 4s^2 3d^10 4p^6 5s^2 4d^10 5p^6 6s^2 4f^14 5d^10 6p^6 7s^2;Full orbital;3F;-23094,303492621;0,1941;7;0;5;0;2;[1, 1, 2, 2, 3, 3, 3, 4, 3, 3, 3, 3, 3, 3, 3];[102.772371, 85.593215, 70.820905, 41.242337, 36.905364, 25.990833, 20.824259, 10.834095, 10.835315, 5.559242, 4.498561, 2.306842, 1.710801, 0.761325, 0.569949];[-0.004725170355, 0.063556454549, 0.047937879966, -0.215771512959, -0.228469595114, 0.034610755619, 1.057970196163, -0.679203781916, -1.512646220427, 1.824848572142, 0.450223090020, 0.006334686810, -0.000467680425, 0.000028001429, -0.000004384062]
Radium;Ra;Alkaline earth metal;Likely without hybridisation;88;0;88;1s^2 2s^2 2p^6 3s^2 3p^6 4s^2 3d^10 4p^6 5s^2 4d^10 5p^6 6s^2 4f^14 5d^10 6p^6 7s^2;Full orbital;3F;-23094,303492621;0,1941;7;0;6;0;2;[1, 1, 2, 2, 3, 3, 3, 4, 3, 3, 3, 3, 3, 3, 3];[102.772371, 85.593215, 70.820905, 41.242337, 36.905364, 25.990833, 20.824259, 10.834095, 10.835315, 5.559242, 4.498561, 2.306842, 1.710801, 0.761325, 0.569949];[0.001505006073, -0.025366890090, -0.020090883552, 0.089025733701, 0.091579803395, -0.000794929443, -0.457785597045, 0.374075043597, 0.669022999901, -0.697790366502, -0.998886757690, 1.573896516920, 0.369492425969, -0.005471450851, 0.002624073265]