Element name;Symbol;clasificacion;Possible hybridization;Z;Q;N;Complete electronic configuration;Special configuration;Config;Energy;Ionization;Valence_n;Valence_l;n;l;mz;N_list;A_list;C_list
Technetium;Tc;Transition metal;sp3d;43;0;43;1s^2 2s^2 2p^6 3s^2 3p^6 4s^2 3d^10 4p^6 5s^2 4d^5;Half orbital;2P;-4204,788734656;0,2658;4;2;4;2;5;[3, 4, 3, 3, 3, 4, 3, 3, 3, 3, 3];[47.460462, 35.858566, 19.502703, 14.581944, 9.140374, 7.498466, 5.110192, 3.054737, 1.987935, 1.308653, 0.680109];[-0.000576905538, -0.003229552980, 0.006828951603, -0.152498494425, -0.444999888202, -0.323052343341, 0.197361620684, 0.999564200414, 1.056761030424, 0.402142514918, 0.002271845065]
Ruthenium;Ru;Transition metal;sp3d;44;0;44;1s^2 2s^2 2p^6 3s^2 3p^6 4s^2 3d^10 4p^6 5s^2 4d^6;No special;3P;-4441,539484252;0,271;4;2;1;0;2;[1, 3, 1, 4, 2, 3, 4, 4, 2, 2, 2, 2, 2, 2];[75.387991, 56.101603, 45.917485, 33.095826, 20.646878, 20.626049, 11.711121, 9.098967, 7.950497, 6.803507, 3.167893, 2.231223, 0.817674, 0.666975];[0.033250423593, -0.038554290137, -1.380815070620, 0.043584647779, -0.120330482275, 0.045467673137, 0.005056803435, 0.001046942300, -0.011636149191, 0.001752493446, -0.000007778175, -0.000002262742, 0.000001979899, -0.000001414214]
Ruthenium;Ru;Transition metal;sp3d;44;0;44;1s^2 2s^2 2p^6 3s^2 3p^6 4s^2 3d^10 4p^6 5s^2 4d^6;No special;3P;-4441,539484252;0,271;4;2;2;0;2;[1, 3, 1, 4, 2, 3, 4, 4, 2, 2, 2, 2, 2, 2];[75.387991, 56.101603, 45.917485, 33.095826, 20.646878, 20.626049, 11.711121, 9.098967, 7.950497, 6.803507, 3.167893, 2.231223, 0.817674, 0.666975];[0.061011435822, -0.062301905698, -0.548149318197, 0.146764962183, 0.810985575669, 0.512994231778, -0.077703681342, -0.026135373739, 0.209758842577, -0.024678168085, 0.000156977705, -0.000106348860, 0.000018950462, -0.000018243355]
Ruthenium;Ru;Transition metal;sp3d;44;0;44;1s^2 2s^2 2p^6 3s^2 3p^6 4s^2 3d^10 4p^6 5s^2 4d^6;No special;3P;-4441,539484252;0,271;4;2;3;0;2;[1, 3, 1, 4, 2, 3, 4, 4, 2, 2, 2, 2, 2, 2];[75.387991, 56.101603, 45.917485, 33.095826, 20.646878, 20.626049, 11.711121, 9.098967, 7.950497, 6.803507, 3.167893, 2.231223, 0.817674, 0.666975];[-0.026485391596, 0.027830874379, 0.234762845466, -0.049651623961, -0.448356893803, -0.571108651118, 0.549563673181, 0.132969450303, 0.638887240258, 0.437597132757, 0.007666451722, -0.000607546146, 0.000184554870, -0.000121056681]
Ruthenium;Ru;Transition metal;sp3d;44;0;44;1s^2 2s^2 2p^6 3s^2 3p^6 4s^2 3d^10 4p^6 5s^2 4d^6;No special;3P;-4441,539484252;0,271;4;2;4;0;2;[1, 3, 1, 4, 2, 3, 4, 4, 2, 2, 2, 2, 2, 2];[75.387991, 56.101603, 45.917485, 33.095826, 20.646878, 20.626049, 11.711121, 9.098967, 7.950497, 6.803507, 3.167893, 2.231223, 0.817674, 0.666975];[0.010519061898, -0.011209339538, -0.094277132922, 0.016140843651, 0.193044818169, 0.280755898942, -0.199139937201, -0.369706962167, 0.133775410612, -1.296870181985, 1.973938925685, 0.194969138563, -0.000896328556, -0.001679095763]
Ruthenium;Ru;Transition metal;sp3d;44;0;44;1s^2 2s^2 2p^6 3s^2 3p^6 4s^2 3d^10 4p^6 5s^2 4d^6;No special;3P;-4441,539484252;0,271;4;2;5;0;1;[1, 3, 1, 4, 2, 3, 4, 4, 2, 2, 2, 2, 2, 2];[75.387991, 56.101603, 45.917485, 33.095826, 20.646878, 20.626049, 11.711121, 9.098967, 7.950497, 6.803507, 3.167893, 2.231223, 0.817674, 0.666975];[-0.001758600000, 0.001917700000, 0.015871500000, -0.002148500000, -0.034238700000, -0.051362000000, 0.028874600000, 0.102872700000, 0.052359700000, 0.150138700000, -0.352784900000, -0.250703300000, 0.587688400000, 0.540210400000]
Ruthenium;Ru;Transition metal;sp3d;44;0;44;1s^2 2s^2 2p^6 3s^2 3p^6 4s^2 3d^10 4p^6 5s^2 4d^6;No special;3P;-4441,539484252;0,271;4;2;2;1;6;[2, 3, 2, 3, 3, 2, 3, 3, 3, 2, 2];[68.619796, 56.514248, 33.820701, 27.555949, 21.389947, 15.693563, 9.931706, 7.447787, 2.569516, 2.280073, 0.666975];[-0.012366248966, -0.025192512107, 0.661739696921, 0.718186963298, 0.522404881984, 0.730886097921, 0.007235057853, -0.000681937944, 0.000117575508, -0.000276792341, -0.000000244949]
Ruthenium;Ru;Transition metal;sp3d;44;0;44;1s^2 2s^2 2p^6 3s^2 3p^6 4s^2 3d^10 4p^6 5s^2 4d^6;No special;3P;-4441,539484252;0,271;4;2;3;1;6;[2, 3, 2, 3, 3, 2, 3, 3, 3, 2, 2];[68.619796, 56.514248, 33.820701, 27.555949, 21.389947, 15.693563, 9.931706, 7.447787, 2.569516, 2.280073, 0.666975];[-0.010057849833, -0.020343257263, 0.371935911422, 0.338582679288, 0.617499707625, -0.044778877039, -1.858365650810, -0.866967990479, 0.021690476621, -0.035729482133, -0.000072014998]
Ruthenium;Ru;Transition metal;sp3d;44;0;44;1s^2 2s^2 2p^6 3s^2 3p^6 4s^2 3d^10 4p^6 5s^2 4d^6;No special;3P;-4441,539484252;0,271;4;2;4;1;6;[2, 3, 2, 3, 3, 2, 3, 3, 3, 2, 2];[68.619796, 56.514248, 33.820701, 27.555949, 21.389947, 15.693563, 9.931706, 7.447787, 2.569516, 2.280073, 0.666975];[-0.006055138644, -0.012266064836, 0.194342271243, 0.158415115288, 0.405203411414, -0.338050895065, -0.721510675930, -1.477865833350, -2.127797764966, 5.319756997714, 0.003840799917]
Ruthenium;Ru;Transition metal;sp3d;44;0;44;1s^2 2s^2 2p^6 3s^2 3p^6 4s^2 3d^10 4p^6 5s^2 4d^6;No special;3P;-4441,539484252;0,271;4;2;3;2;10;[3, 4, 3, 4, 3, 4, 3, 3, 3, 3, 3];[48.181841, 36.523583, 17.717806, 16.634643, 9.655157, 7.941762, 5.347505, 3.199141, 1.968988, 1.217727, 0.666975];[0.002425150738, 0.012983047162, 0.339202345673, 0.231967296623, 2.006825991258, 0.623587873019, 0.215348262608, 0.003288452539, 0.001285782097, 0.000189736660, 0.000037631104]
Ruthenium;Ru;Transition metal;sp3d;44;0;44;1s^2 2s^2 2p^6 3s^2 3p^6 4s^2 3d^10 4p^6 5s^2 4d^6;No special;3P;-4441,539484252;0,271;4;2;4;2;7;[3, 4, 3, 4, 3, 4, 3, 3, 3, 3, 3];[48.181841, 36.523583, 17.717806, 16.634643, 9.655157, 7.941762, 5.347505, 3.199141, 1.968988, 1.217727, 0.666975];[-0.000680222662, -0.003714105690, -0.084359251403, -0.076631540974, -0.518875222421, -0.408869909835, 0.265246093639, 1.212194882636, 1.191495847254, 0.554382263316, 0.007719773175]
Rhodium;Rh;Transition metal;sp3d;45;0;45;1s^2 2s^2 2p^6 3s^2 3p^6 4s^2 3d^10 4p^6 5s^2 4d^7;No special;4S;-4685,881699827;0,2743;4;2;1;0;2;[1, 3, 1, 4, 3, 2, 4, 4, 2, 2, 2, 2, 2, 2];[77.024171, 57.422340, 46.951633, 33.967751, 21.231867, 21.219242, 12.051536, 9.357721, 8.131190, 6.958132, 3.298265, 2.284775, 0.825117, 0.665761];[-0.033135448030, 0.037842092187, 1.381191110006, -0.043115553140, -0.045156970417, 0.119859973423, -0.004823458197, -0.001138583339, 0.011101576465, -0.001552947913, 0.000003818377, 0.000003676955, -0.000002121320, 0.000001414214]
Rhodium;Rh;Transition metal;sp3d;45;0;45;1s^2 2s^2 2p^6 3s^2 3p^6 4s^2 3d^10 4p^6 5s^2 4d^7;No special;4S;-4685,881699827;0,2743;4;2;2;0;2;[1, 3, 1, 4, 3, 2, 4, 4, 2, 2, 2, 2, 2, 2];[77.024171, 57.422340, 46.951633, 33.967751, 21.231867, 21.219242, 12.051536, 9.357721, 8.131190, 6.958132, 3.298265, 2.284775, 0.825117, 0.665761];[0.061057963449, -0.061506410569, -0.549071668283, 0.145305069522, 0.522724445351, 0.797490301329, -0.084143727062, -0.027518757446, 0.229263534608, -0.032630432367, 0.000385797460, -0.000185686241, 0.000040163665, -0.000030405592]
Rhodium;Rh;Transition metal;sp3d;45;0;45;1s^2 2s^2 2p^6 3s^2 3p^6 4s^2 3d^10 4p^6 5s^2 4d^7;No special;4S;-4685,881699827;0,2743;4;2;3;0;2;[1, 3, 1, 4, 3, 2, 4, 4, 2, 2, 2, 2, 2, 2];[77.024171, 57.422340, 46.951633, 33.967751, 21.231867, 21.219242, 12.051536, 9.357721, 8.131190, 6.958132, 3.298265, 2.284775, 0.825117, 0.665761];[-0.026603054165, 0.027577164466, 0.236405171676, -0.049239239287, -0.573932269917, -0.441373790075, 0.580523353646, 0.129509576823, 0.651700863661, 0.392635748075, 0.007301018937, -0.000316500995, 0.000118086832, -0.000072973420]
Rhodium;Rh;Transition metal;sp3d;45;0;45;1s^2 2s^2 2p^6 3s^2 3p^6 4s^2 3d^10 4p^6 5s^2 4d^7;No special;4S;-4685,881699827;0,2743;4;2;4;0;2;[1, 3, 1, 4, 3, 2, 4, 4, 2, 2, 2, 2, 2, 2];[77.024171, 57.422340, 46.951633, 33.967751, 21.231867, 21.219242, 12.051536, 9.357721, 8.131190, 6.958132, 3.298265, 2.284775, 0.825117, 0.665761];[0.010689616054, -0.011182610902, -0.096084073591, 0.016672729372, 0.284697594983, 0.194127257229, -0.235490741187, -0.429451686901, -0.087547456264, -1.016440259269, 1.994053143761, 0.190438705416, -0.002112835062, 0.000363594307]
Rhodium;Rh;Transition metal;sp3d;45;0;45;1s^2 2s^2 2p^6 3s^2 3p^6 4s^2 3d^10 4p^6 5s^2 4d^7;No special;4S;-4685,881699827;0,2743;4;2;5;0;1;[1, 3, 1, 4, 3, 2, 4, 4, 2, 2, 2, 2, 2, 2];[77.024171, 57.422340, 46.951633, 33.967751, 21.231867, 21.219242, 12.051536, 9.357721, 8.131190, 6.958132, 3.298265, 2.284775, 0.825117, 0.665761];[-0.001715300000, 0.001835400000, 0.015529000000, -0.002156300000, -0.049983100000, -0.033142300000, 0.034297500000, 0.112033600000, 0.098560400000, 0.083333800000, -0.354043000000, -0.220149700000, 0.563657600000, 0.551549300000]
Rhodium;Rh;Transition metal;sp3d;45;0;45;1s^2 2s^2 2p^6 3s^2 3p^6 4s^2 3d^10 4p^6 5s^2 4d^7;No special;4S;-4685,881699827;0,2743;4;2;2;1;6;[2, 3, 2, 3, 3, 2, 3, 3, 3, 2, 2];[70.788924, 58.080359, 34.589353, 28.182221, 22.750752, 16.701338, 10.300968, 7.763781, 2.693156, 2.388176, 0.665761];[-0.011034216444, -0.023127102355, 0.598875747213, 0.616057448065, 0.364279296384, 1.026019973100, 0.009193424903, -0.001298474513, 0.000056828162, -0.000208941475, 0.000000734847]
Rhodium;Rh;Transition metal;sp3d;45;0;45;1s^2 2s^2 2p^6 3s^2 3p^6 4s^2 3d^10 4p^6 5s^2 4d^7;No special;4S;-4685,881699827;0,2743;4;2;3;1;6;[2, 3, 2, 3, 3, 2, 3, 3, 3, 2, 2];[70.788924, 58.080359, 34.589353, 28.182221, 22.750752, 16.701338, 10.300968, 7.763781, 2.693156, 2.388176, 0.665761];[-0.009259316177, -0.019226534889, 0.328882210009, 0.251448695311, 0.489573636115, 0.224637560382, -1.845619485985, -0.903377450965, 0.024991653948, -0.041050508701, -0.000084017498]
Rhodium;Rh;Transition metal;sp3d;45;0;45;1s^2 2s^2 2p^6 3s^2 3p^6 4s^2 3d^10 4p^6 5s^2 4d^7;No special;4S;-4685,881699827;0,2743;4;2;4;1;6;[2, 3, 2, 3, 3, 2, 3, 3, 3, 2, 2];[70.788924, 58.080359, 34.589353, 28.182221, 22.750752, 16.701338, 10.300968, 7.763781, 2.693156, 2.388176, 0.665761];[-0.006190350478, -0.012843899466, 0.187141506247, 0.117862587851, 0.366381203532, -0.235093942196, -0.728299926650, -1.531986574370, -2.133405381834, 5.351543291259, 0.003757027367]
Rhodium;Rh;Transition metal;sp3d;45;0;45;1s^2 2s^2 2p^6 3s^2 3p^6 4s^2 3d^10 4p^6 5s^2 4d^7;No special;4S;-4685,881699827;0,2743;4;2;3;2;10;[3, 4, 3, 4, 3, 4, 3, 3, 3, 3, 3];[48.021841, 36.790557, 19.119353, 17.773712, 10.020134, 8.170279, 5.403773, 3.223903, 1.964992, 1.227727, 0.665761];[0.002936491035, 0.014716924003, 0.270630884435, 0.260079945022, 2.069578229146, 0.644605319032, 0.165891504914, 0.003461112899, 0.001281038680, 0.000407933818, 0.000001264911]
Rhodium;Rh;Transition metal;sp3d;45;0;45;1s^2 2s^2 2p^6 3s^2 3p^6 4s^2 3d^10 4p^6 5s^2 4d^7;No special;4S;-4685,881699827;0,2743;4;2;4;2;8;[3, 4, 3, 4, 3, 4, 3, 3, 3, 3, 3];[48.021841, 36.790557, 19.119353, 17.773712, 10.020134, 8.170279, 5.403773, 3.223903, 1.964992, 1.227727, 0.665761];[-0.000963927964, -0.004951727367, -0.072638816890, -0.090899990935, -0.609074628414, -0.489406705193, 0.426416501754, 1.407441176466, 1.215908576859, 0.466774479869, 0.002017517068]
Palladium;Pd;Transition metal;sp3d;46;0;46;1s^2 2s^2 2p^6 3s^2 3p^6 4s^2 3d^10 4p^6 5s^2 4d^8;No special;3P;-4937,921019011;0,3063;4;2;1;0;2;[1, 3, 1, 2, 3, 4, 2, 4, 4, 2, 2, 3, 2, 1];[95.004581, 65.455382, 48.666335, 36.523802, 35.930115, 32.224650, 19.506212, 16.996951, 12.296306, 7.791419, 3.447402, 2.734925, 0.998788, 0.819759];[-0.009208793033, 0.018128237971, 1.309924363115, 0.165680351422, -0.054485264496, 0.012034533152, -0.008082937616, 0.000760139790, -0.000860973217, 0.000876670987, -0.000043274935, 0.000080327330, 0.000118652518, -0.000184979134]
Palladium;Pd;Transition metal;sp3d;46;0;46;1s^2 2s^2 2p^6 3s^2 3p^6 4s^2 3d^10 4p^6 5s^2 4d^8;No special;3P;-4937,921019011;0,3063;4;2;2;0;2;[1, 3, 1, 2, 3, 4, 2, 4, 4, 2, 2, 3, 2, 1];[95.004581, 65.455382, 48.666335, 36.523802, 35.930115, 32.224650, 19.506212, 16.996951, 12.296306, 7.791419, 3.447402, 2.734925, 0.998788, 0.819759];[-0.010602217656, 0.018974361945, 0.441821388667, 0.306497838468, -0.078840426203, -0.051287869053, -1.554418412104, -0.035178703785, 0.001849367076, -0.003148039390, 0.000453538289, -0.000345633795, -0.000483095353, 0.000756321413]
Palladium;Pd;Transition metal;sp3d;46;0;46;1s^2 2s^2 2p^6 3s^2 3p^6 4s^2 3d^10 4p^6 5s^2 4d^8;No special;3P;-4937,921019011;0,3063;4;2;3;0;2;[1, 3, 1, 2, 3, 4, 2, 4, 4, 2, 2, 3, 2, 1];[95.004581, 65.455382, 48.666335, 36.523802, 35.930115, 32.224650, 19.506212, 16.996951, 12.296306, 7.791419, 3.447402, 2.734925, 0.998788, 0.819759];[0.005286047453, -0.009629662989, -0.192497093256, -0.266548709494, -0.102295440978, -0.092014108380, 1.483724704548, 0.056982058541, -0.492857527706, -1.354695253230, -0.008664462233, 0.001113127495, 0.001443629204, -0.002313511967]
Palladium;Pd;Transition metal;sp3d;46;0;46;1s^2 2s^2 2p^6 3s^2 3p^6 4s^2 3d^10 4p^6 5s^2 4d^8;No special;3P;-4937,921019011;0,3063;4;2;4;0;2;[1, 3, 1, 2, 3, 4, 2, 4, 4, 2, 2, 3, 2, 1];[95.004581, 65.455382, 48.666335, 36.523802, 35.930115, 32.224650, 19.506212, 16.996951, 12.296306, 7.791419, 3.447402, 2.734925, 0.998788, 0.819759];[0.001762958627, -0.003065166475, -0.077969553492, -0.246799499939, -0.177669064054, -0.170032027975, 1.458937783440, 0.521841268982, 0.372826858707, -2.905214254278, 2.049290345609, 0.147016267933, -0.016872699170, 0.028541516694]
Palladium;Pd;Transition metal;sp3d;46;0;46;1s^2 2s^2 2p^6 3s^2 3p^6 4s^2 3d^10 4p^6 5s^2 4d^8;No special;3P;-4937,921019011;0,3063;4;2;2;1;6;[2, 3, 2, 3, 3, 2, 3, 3, 3, 2, 2];[72.015150, 59.578992, 36.479116, 30.006145, 24.034672, 17.033197, 10.715216, 8.150158, 2.806387, 2.467078, 0.819759];[-0.013372499353, -0.026130666678, 0.571878206115, 0.535792323224, 0.500212015017, 1.007614997071, 0.007311481933, -0.000498226214, 0.000380160808, -0.000671160190, -0.000005878775]
Palladium;Pd;Transition metal;sp3d;46;0;46;1s^2 2s^2 2p^6 3s^2 3p^6 4s^2 3d^10 4p^6 5s^2 4d^8;No special;3P;-4937,921019011;0,3063;4;2;3;1;6;[2, 3, 2, 3, 3, 2, 3, 3, 3, 2, 2];[72.015150, 59.578992, 36.479116, 30.006145, 24.034672, 17.033197, 10.715216, 8.150158, 2.806387, 2.467078, 0.819759];[-0.010084549271, -0.019704920236, 0.287673954168, 0.190169565467, 0.456285070510, 0.383382376990, -1.779033046715, -0.989226432623, 0.034879019294, -0.055093188448, -0.000182486986]
Palladium;Pd;Transition metal;sp3d;46;0;46;1s^2 2s^2 2p^6 3s^2 3p^6 4s^2 3d^10 4p^6 5s^2 4d^8;No special;3P;-4937,921019011;0,3063;4;2;4;1;6;[2, 3, 2, 3, 3, 2, 3, 3, 3, 2, 2];[72.015150, 59.578992, 36.479116, 30.006145, 24.034672, 17.033197, 10.715216, 8.150158, 2.806387, 2.467078, 0.819759];[-0.007334262188, -0.014422350657, 0.167206823873, 0.076212689010, 0.347813336435, -0.145731902349, -0.663701983154, -1.615357407255, -2.238720213529, 5.455586347880, 0.006045585634]
Palladium;Pd;Transition metal;sp3d;46;0;46;1s^2 2s^2 2p^6 3s^2 3p^6 4s^2 3d^10 4p^6 5s^2 4d^8;No special;3P;-4937,921019011;0,3063;4;2;3;2;10;[3, 4, 3, 3, 3, 3, 3, 3, 3, 3, 3];[48.681034, 37.530522, 20.726814, 16.600467, 10.405856, 7.629025, 5.600123, 3.476758, 2.106938, 1.250135, 0.819759];[0.003080374669, 0.014769734040, -0.043630893561, 0.594343129218, 1.601269889669, 1.063288667644, 0.129328301923, 0.003539853613, 0.000271323423, -0.000040160926, 0.000015178933]
Palladium;Pd;Transition metal;sp3d;46;0;46;1s^2 2s^2 2p^6 3s^2 3p^6 4s^2 3d^10 4p^6 5s^2 4d^8;No special;3P;-4937,921019011;0,3063;4;2;4;2;10;[3, 4, 3, 3, 3, 3, 3, 3, 3, 3, 3];[48.681034, 37.530522, 20.726814, 16.600467, 10.405856, 7.629025, 5.600123, 3.476758, 2.106938, 1.250135, 0.819759];[-0.001248150992, -0.006183833964, 0.039829835813, -0.235346822758, -0.329903668214, -0.813766302818, 0.426256371153, 1.471483373712, 1.340158725902, 0.696771199997, 0.060486465945]
Silver;Ag;Transition metal;sp3d;47;0;47;1s^2 2s^2 2p^6 3s^2 3p^6 4s^2 3d^10 4p^6 5s^2 4d^9;No special;2P;-5197,698467674;0,2783;5;0;1;0;2;[1, 3, 1, 4, 3, 2, 4, 4, 2, 2, 2, 2, 2, 2];[81.922545, 60.961344, 49.339744, 36.344474, 22.846089, 22.824480, 13.009377, 9.794366, 8.903696, 4.446178, 3.589317, 2.519920, 0.826013, 0.663294];[-0.035279395791, 0.039501671803, 1.375617694357, -0.047765487333, -0.051260574731, 0.135805231338, -0.005945636659, -0.001334169075, 0.011618047258, -0.000274498852, 0.000201666854, -0.000035213918, 0.000004101219, -0.000002687006]
Silver;Ag;Transition metal;sp3d;47;0;47;1s^2 2s^2 2p^6 3s^2 3p^6 4s^2 3d^10 4p^6 5s^2 4d^9;No special;2P;-5197,698467674;0,2783;5;0;2;0;2;[1, 3, 1, 4, 3, 2, 4, 4, 2, 2, 2, 2, 2, 2];[81.922545, 60.961344, 49.339744, 36.344474, 22.846089, 22.824480, 13.009377, 9.794366, 8.903696, 4.446178, 3.589317, 2.519920, 0.826013, 0.663294];[0.056267456427, -0.057336884723, -0.538899795814, 0.137103337967, 0.604704284242, 0.684657413676, -0.116657911075, -0.038162552981, 0.266857856579, -0.000710783736, 0.000605849090, -0.000193464415, 0.000030547013, -0.000020506097]
Silver;Ag;Transition metal;sp3d;47;0;47;1s^2 2s^2 2p^6 3s^2 3p^6 4s^2 3d^10 4p^6 5s^2 4d^9;No special;2P;-5197,698467674;0,2783;5;0;3;0;2;[1, 3, 1, 4, 3, 2, 4, 4, 2, 2, 2, 2, 2, 2];[81.922545, 60.961344, 49.339744, 36.344474, 22.846089, 22.824480, 13.009377, 9.794366, 8.903696, 4.446178, 3.589317, 2.519920, 0.826013, 0.663294];[-0.024545373431, 0.025860450623, 0.233977249833, -0.045100401875, -0.585351195905, -0.378378636889, 0.701825683481, 0.314102489057, 0.701512435177, 0.039934986838, -0.012273959508, 0.002477985004, -0.000145805418, 0.000089236876]
Silver;Ag;Transition metal;sp3d;47;0;47;1s^2 2s^2 2p^6 3s^2 3p^6 4s^2 3d^10 4p^6 5s^2 4d^9;No special;2P;-5197,698467674;0,2783;5;0;4;0;2;[1, 3, 1, 4, 3, 2, 4, 4, 2, 2, 2, 2, 2, 2];[81.922545, 60.961344, 49.339744, 36.344474, 22.846089, 22.824480, 13.009377, 9.794366, 8.903696, 4.446178, 3.589317, 2.519920, 0.826013, 0.663294];[0.010030168270, -0.010671372699, -0.096994827125, 0.015262758451, 0.295061517654, 0.176249476481, -0.357487449881, -0.712092449679, -0.720653391479, -0.153162298653, 2.067950610721, 0.234971583388, -0.000297550534, 0.000667084537]
Silver;Ag;Transition metal;sp3d;47;0;47;1s^2 2s^2 2p^6 3s^2 3p^6 4s^2 3d^10 4p^6 5s^2 4d^9;No special;2P;-5197,698467674;0,2783;5;0;5;0;1;[1, 3, 1, 4, 3, 2, 4, 4, 2, 2, 2, 2, 2, 2];[81.922545, 60.961344, 49.339744, 36.344474, 22.846089, 22.824480, 13.009377, 9.794366, 8.903696, 4.446178, 3.589317, 2.519920, 0.826013, 0.663294];[-0.001480100000, 0.001595900000, 0.014384700000, -0.001977800000, -0.046125100000, -0.027150900000, 0.052588900000, 0.137407400000, 0.132000300000, -0.049460900000, -0.258864700000, -0.218785000000, 0.541380500000, 0.550249600000]
Silver;Ag;Transition metal;sp3d;47;0;47;1s^2 2s^2 2p^6 3s^2 3p^6 4s^2 3d^10 4p^6 5s^2 4d^9;No special;2P;-5197,698467674;0,2783;5;0;2;1;6;[2, 3, 3, 2, 3, 3, 3, 3, 2, 2, 2];[58.031368, 51.182468, 33.533569, 23.909244, 19.551930, 10.860119, 8.237653, 3.358709, 2.956246, 1.903964, 0.663294];[-0.029380649669, -0.035584472340, -0.223072581386, 2.244468431108, 0.552210028225, 0.015138581457, -0.004806878671, -0.001805763838, 0.002139629290, 0.000126148722, -0.000012492398]
Silver;Ag;Transition metal;sp3d;47;0;47;1s^2 2s^2 2p^6 3s^2 3p^6 4s^2 3d^10 4p^6 5s^2 4d^9;No special;2P;-5197,698467674;0,2783;5;0;3;1;6;[2, 3, 3, 2, 3, 3, 3, 3, 2, 2, 2];[58.031368, 51.182468, 33.533569, 23.909244, 19.551930, 10.860119, 8.237653, 3.358709, 2.956246, 1.903964, 0.663294];[0.067932923781, 0.078843930892, 0.379257926161, -1.511014778039, -0.235511335248, 1.937934385717, 0.825440566125, -0.033896528959, 0.058362277458, 0.000158237037, -0.000012492398]
Silver;Ag;Transition metal;sp3d;47;0;47;1s^2 2s^2 2p^6 3s^2 3p^6 4s^2 3d^10 4p^6 5s^2 4d^9;No special;2P;-5197,698467674;0,2783;5;0;4;1;6;[2, 3, 3, 2, 3, 3, 3, 3, 2, 2, 2];[58.031368, 51.182468, 33.533569, 23.909244, 19.551930, 10.860119, 8.237653, 3.358709, 2.956246, 1.903964, 0.663294];[-0.047131856886, -0.054245420048, -0.258740581326, 0.758420077273, -0.026392272183, -0.837182440156, -1.609216536470, -0.959064640675, 4.221829558776, 0.194756969857, 0.001149300587]