Element name;Symbol;clasificacion;Possible hybridization;Z;Q;N;Complete electronic configuration;Special configuration;Config;Energy;Ionization;Valence_n;Valence_l;n;l;mz;N_list;A_list;C_list
Bromine;Br;Non metal;sp3;35;0;35;1s^2 2s^2 2p^6 3s^2 3p^6 4s^2 3d^10 4p^5;No special;4F;-2572,44133138;0,4353;4;1;4;1;5;[2, 3, 2, 3, 3, 2, 3, 3, 3, 2, 2];[53.964914, 44.074427, 25.967586, 20.612559, 14.804998, 7.130435, 6.280038, 4.641256, 1.483284, 1.265163, 0.956123];[-0.002561192261, -0.005536951526, 0.099673400917, 0.117618740864, 0.208139021122, -0.416980838410, -0.308370097393, -0.625690504080, -1.131131756928, 3.371366423497, 0.312006614745]
Bromine;Br;Non metal;sp3;35;0;35;1s^2 2s^2 2p^6 3s^2 3p^6 4s^2 3d^10 4p^5;No special;4F;-2572,44133138;0,4353;4;1;3;2;10;[3, 4, 3, 3, 3, 3, 3, 3];[32.846999, 25.721481, 11.166998, 7.375640, 4.935945, 3.345405, 1.916340, 0.956123];[0.004978689948, 0.020584213973, 0.546871016983, 1.135015449532, 1.346374182643, 0.437134922531, 0.015104619244, -0.000006640783]
Krypton;Kr;Noble gas;sp3;36;0;36;1s^2 2s^2 2p^6 3s^2 3p^6 4s^2 3d^10 4p^6;Noble gas;7S;-2752,054975504;0,5147;4;1;1;0;2;[1, 3, 1, 4, 2, 3, 3, 2, 2, 2, 2, 1];[60.777807, 44.499723, 36.979014, 25.529164, 15.429937, 15.427470, 7.202997, 6.034988, 4.750173, 2.188877, 1.592153, 1.023901];[0.021037699533, -0.033151428644, -1.383649154599, 0.036641849137, -0.097505499642, 0.041173979340, 0.013505880942, -0.019377695653, 0.000899864090, 0.000153442172, -0.000189363196, 0.000116531198]
Krypton;Kr;Noble gas;sp3;36;0;36;1s^2 2s^2 2p^6 3s^2 3p^6 4s^2 3d^10 4p^6;Noble gas;7S;-2752,054975504;0,5147;4;1;2;0;2;[1, 3, 1, 4, 2, 3, 3, 2, 2, 2, 2, 1];[60.777807, 44.499723, 36.979014, 25.529164, 15.429937, 15.427470, 7.202997, 6.034988, 4.750173, 2.188877, 1.592153, 1.023901];[0.062224123952, -0.071843887446, -0.552518813841, 0.150321992135, 1.112313615039, 0.245173861449, -0.096816494795, 0.166500595288, -0.018971674939, 0.000775696139, -0.000767635122, 0.000410546197]
Krypton;Kr;Noble gas;sp3;36;0;36;1s^2 2s^2 2p^6 3s^2 3p^6 4s^2 3d^10 4p^6;Noble gas;7S;-2752,054975504;0,5147;4;1;3;0;2;[1, 3, 1, 4, 2, 3, 3, 2, 2, 2, 2, 1];[60.777807, 44.499723, 36.979014, 25.529164, 15.429937, 15.427470, 7.202997, 6.034988, 4.750173, 2.188877, 1.592153, 1.023901];[-0.026254591943, 0.030842300739, 0.224410236504, -0.054383582541, -0.569043192210, -0.456910905957, 0.646740792434, 0.694195435626, 0.438193648037, -0.000710359472, 0.003550100306, -0.001476863223]
Krypton;Kr;Noble gas;sp3;36;0;36;1s^2 2s^2 2p^6 3s^2 3p^6 4s^2 3d^10 4p^6;Noble gas;7S;-2752,054975504;0,5147;4;1;4;0;2;[1, 3, 1, 4, 2, 3, 3, 2, 2, 2, 2, 1];[60.777807, 44.499723, 36.979014, 25.529164, 15.429937, 15.427470, 7.202997, 6.034988, 4.750173, 2.188877, 1.592153, 1.023901];[0.008368608755, -0.009939375759, -0.071712931270, 0.015052040630, 0.193660991018, 0.183863036615, -0.072601340230, 0.136268527701, -1.278298588062, 0.960850069716, 0.878742103077, 0.047907332954]
Krypton;Kr;Noble gas;sp3;36;0;36;1s^2 2s^2 2p^6 3s^2 3p^6 4s^2 3d^10 4p^6;Noble gas;7S;-2752,054975504;0,5147;4;1;2;1;6;[2, 3, 2, 3, 3, 2, 3, 3, 3, 2, 2];[55.423460, 45.348388, 26.746410, 21.299661, 15.365217, 8.075067, 6.762676, 4.956675, 1.641161, 1.395473, 1.023901];[-0.015219169670, -0.032809445411, 0.821820465234, 1.033548234876, 0.787210644862, 0.070274635976, -0.008550433845, 0.002979069425, 0.000921008143, -0.001134603649, -0.000041641326]
Krypton;Kr;Noble gas;sp3;36;0;36;1s^2 2s^2 2p^6 3s^2 3p^6 4s^2 3d^10 4p^6;Noble gas;7S;-2752,054975504;0,5147;4;1;3;1;6;[2, 3, 2, 3, 3, 2, 3, 3, 3, 2, 2];[55.423460, 45.348388, 26.746410, 21.299661, 15.365217, 8.075067, 6.762676, 4.956675, 1.641161, 1.395473, 1.023901];[-0.009678178923, -0.020595554706, 0.405657056915, 0.487986856659, 0.759892220608, -0.972588763443, -1.604280569689, -0.540728779903, 0.013913101739, -0.022186743243, 0.001162037934]
Krypton;Kr;Noble gas;sp3;36;0;36;1s^2 2s^2 2p^6 3s^2 3p^6 4s^2 3d^10 4p^6;Noble gas;7S;-2752,054975504;0,5147;4;1;4;1;6;[2, 3, 2, 3, 3, 2, 3, 3, 3, 2, 2];[55.423460, 45.348388, 26.746410, 21.299661, 15.365217, 8.075067, 6.762676, 4.956675, 1.641161, 1.395473, 1.023901];[-0.002970496211, -0.006328746648, 0.117118187919, 0.136691570555, 0.246763066382, -0.407986276711, -0.430856427592, -0.761533133787, -1.232765725554, 3.729991614343, 0.352600374239]
Krypton;Kr;Noble gas;sp3;36;0;36;1s^2 2s^2 2p^6 3s^2 3p^6 4s^2 3d^10 4p^6;Noble gas;7S;-2752,054975504;0,5147;4;1;3;2;10;[3, 4, 3, 3, 3, 3, 3, 3];[33.868162, 26.569736, 11.514091, 7.536640, 5.124374, 3.510570, 2.025551, 1.023901];[0.004991339059, 0.020401434325, 0.582408693328, 1.189431291052, 1.315594469266, 0.360496490982, 0.012548233983, 0.000028460499]
Rubidium;Rb;Alkali metal;Likely without hybridisation;37;0;37;1s^2 2s^2 2p^6 3s^2 3p^6 4s^2 3d^10 4p^6 5s^1;Half orbital;6S;-2938,357452181;0,1537;5;0;1;0;2;[1, 3, 1, 4, 2, 3, 4, 4, 2, 2, 2, 2, 2, 3];[61.238288, 45.419154, 37.904166, 26.159754, 15.837093, 15.837028, 8.856530, 6.318787, 5.309624, 2.093831, 1.544223, 1.011039, 0.525141, 0.525102];[-0.020209394649, 0.030642189520, 1.386681794162, -0.034067697611, 0.091576692125, -0.037719621293, -0.006214195814, -0.003432862001, 0.012628927112, -0.000148633845, 0.000144532626, -0.000064629560, 0.000030405592, -0.000014566400]
Rubidium;Rb;Alkali metal;Likely without hybridisation;37;0;37;1s^2 2s^2 2p^6 3s^2 3p^6 4s^2 3d^10 4p^6 5s^1;Half orbital;6S;-2938,357452181;0,1537;5;0;2;0;2;[1, 3, 1, 4, 2, 3, 4, 4, 2, 2, 2, 2, 2, 3];[61.238288, 45.419154, 37.904166, 26.159754, 15.837093, 15.837028, 8.856530, 6.318787, 5.309624, 2.093831, 1.544223, 1.011039, 0.525141, 0.525102];[0.067214176507, -0.071095909893, -0.562387620343, 0.151070959637, 1.142099639668, 0.226742133247, -0.052442998691, -0.036419959029, 0.125443147146, 0.000054871486, -0.000296984848, 0.000181019336, -0.000097580736, 0.000047941840]
Rubidium;Rb;Alkali metal;Likely without hybridisation;37;0;37;1s^2 2s^2 2p^6 3s^2 3p^6 4s^2 3d^10 4p^6 5s^1;Half orbital;6S;-2938,357452181;0,1537;5;0;3;0;2;[1, 3, 1, 4, 2, 3, 4, 4, 2, 2, 2, 2, 2, 3];[61.238288, 45.419154, 37.904166, 26.159754, 15.837093, 15.837028, 8.856530, 6.318787, 5.309624, 2.093831, 1.544223, 1.011039, 0.525141, 0.525102];[-0.028620712654, 0.030775974123, 0.230628109274, -0.055364905332, -0.616139332265, -0.478153949298, 0.153596179374, -0.274793008878, 1.885377336875, -0.003331321468, 0.005623054545, -0.002322421512, 0.001030961687, -0.000491580634]
Rubidium;Rb;Alkali metal;Likely without hybridisation;37;0;37;1s^2 2s^2 2p^6 3s^2 3p^6 4s^2 3d^10 4p^6 5s^1;Half orbital;6S;-2938,357452181;0,1537;5;0;4;0;2;[1, 3, 1, 4, 2, 3, 4, 4, 2, 2, 2, 2, 2, 3];[61.238288, 45.419154, 37.904166, 26.159754, 15.837093, 15.837028, 8.856530, 6.318787, 5.309624, 2.093831, 1.544223, 1.011039, 0.525141, 0.525102];[0.009634612736, -0.010411157403, -0.077841001479, 0.016824898752, 0.223443621535, 0.201202143418, -0.070044159267, -0.176824495715, -1.054848461145, 1.681317633533, 0.199530684408, -0.002213385646, 0.000217081782, 0.000489317893]
Rubidium;Rb;Alkali metal;Likely without hybridisation;37;0;37;1s^2 2s^2 2p^6 3s^2 3p^6 4s^2 3d^10 4p^6 5s^1;Half orbital;6S;-2938,357452181;0,1537;5;0;5;0;1;[1, 3, 1, 4, 2, 3, 4, 4, 2, 2, 2, 2, 2, 3];[61.238288, 45.419154, 37.904166, 26.159754, 15.837093, 15.837028, 8.856530, 6.318787, 5.309624, 2.093831, 1.544223, 1.011039, 0.525141, 0.525102];[-0.001435600000, 0.001505200000, 0.011590500000, -0.002883800000, -0.033255300000, -0.029442900000, 0.014094000000, 0.034571400000, 0.163224600000, -0.298585300000, 0.003694300000, -0.364402000000, 1.237659800000, 0.034465700000]
Rubidium;Rb;Alkali metal;Likely without hybridisation;37;0;37;1s^2 2s^2 2p^6 3s^2 3p^6 4s^2 3d^10 4p^6 5s^1;Half orbital;6S;-2938,357452181;0,1537;5;0;2;1;6;[2, 3, 2, 3, 3, 2, 3, 3, 3, 2, 2];[58.153213, 47.226370, 27.305393, 21.943275, 15.955742, 9.305393, 7.290585, 5.311460, 1.664002, 1.475167, 0.525102];[-0.011958163975, -0.027199868951, 0.820704967605, 1.010075754467, 0.775414392159, 0.089606253975, -0.002436997345, 0.001520398283, 0.000236865658, -0.000330926064, -0.000004164133]
Rubidium;Rb;Alkali metal;Likely without hybridisation;37;0;37;1s^2 2s^2 2p^6 3s^2 3p^6 4s^2 3d^10 4p^6 5s^1;Half orbital;6S;-2938,357452181;0,1537;5;0;3;1;6;[2, 3, 2, 3, 3, 2, 3, 3, 3, 2, 2];[58.153213, 47.226370, 27.305393, 21.943275, 15.955742, 9.305393, 7.290585, 5.311460, 1.664002, 1.475167, 0.525102];[-0.008135000385, -0.018200443636, 0.414619249986, 0.485852126348, 0.776605823970, -0.785679223875, -1.724019221735, -0.639078732463, 0.012058348106, -0.018740801073, -0.000017146428]
Rubidium;Rb;Alkali metal;Likely without hybridisation;37;0;37;1s^2 2s^2 2p^6 3s^2 3p^6 4s^2 3d^10 4p^6 5s^1;Half orbital;6S;-2938,357452181;0,1537;5;0;4;1;6;[2, 3, 2, 3, 3, 2, 3, 3, 3, 2, 2];[58.153213, 47.226370, 27.305393, 21.943275, 15.955742, 9.305393, 7.290585, 5.311460, 1.664002, 1.475167, 0.525102];[-0.002878640346, -0.006458814554, 0.134490214123, 0.151445337174, 0.289154915666, -0.391431155335, -0.520491585546, -0.881350169504, -1.447377279470, 4.304395979230, 0.006058078032]
Rubidium;Rb;Alkali metal;Likely without hybridisation;37;0;37;1s^2 2s^2 2p^6 3s^2 3p^6 4s^2 3d^10 4p^6 5s^1;Half orbital;6S;-2938,357452181;0,1537;5;0;3;2;10;[3, 4, 3, 3, 3, 3, 3, 3];[35.762583, 27.863840, 11.927910, 7.697962, 5.232765, 3.513352, 1.532313, 0.525102];[0.004458495273, 0.019317721770, 0.604338456446, 1.291069424872, 1.297716848742, 0.247672116167, 0.001798387305, -0.000085065269]
Strontium;Sr;Alkaline earth metal;Likely without hybridisation;38;0;38;1s^2 2s^2 2p^6 3s^2 3p^6 4s^2 3d^10 4p^6 5s^2;Full orbital;5D;-3131,545684546;0,2092;5;0;1;0;2;[1, 3, 1, 4, 2, 3, 4, 4, 2, 2, 2, 2, 2, 3];[63.847506, 47.274210, 39.188703, 27.364721, 16.734172, 16.730882, 9.349486, 6.986214, 5.834851, 4.333246, 2.286303, 1.569080, 0.645727, 0.597422];[-0.025108654693, 0.034403149068, 1.384438710031, -0.037850718890, 0.102133513525, -0.040584535128, -0.005581900931, -0.002362302335, 0.011980227351, -0.000929703996, 0.000089095454, -0.000031678384, 0.000006222540, -0.000002969848]
Strontium;Sr;Alkaline earth metal;Likely without hybridisation;38;0;38;1s^2 2s^2 2p^6 3s^2 3p^6 4s^2 3d^10 4p^6 5s^2;Full orbital;5D;-3131,545684546;0,2092;5;0;2;0;2;[1, 3, 1, 4, 2, 3, 4, 4, 2, 2, 2, 2, 2, 3];[63.847506, 47.274210, 39.188703, 27.364721, 16.734172, 16.730882, 9.349486, 6.986214, 5.834851, 4.333246, 2.286303, 1.569080, 0.645727, 0.597422];[0.064269783870, -0.068699807854, -0.554963564826, 0.151262019890, 1.028021536974, 0.332299740650, -0.052297051851, -0.033497345281, 0.136251839981, -0.004866450289, 0.000089661140, -0.000057982756, 0.000009899495, -0.000004666905]
Strontium;Sr;Alkaline earth metal;Likely without hybridisation;38;0;38;1s^2 2s^2 2p^6 3s^2 3p^6 4s^2 3d^10 4p^6 5s^2;Full orbital;5D;-3131,545684546;0,2092;5;0;3;0;2;[1, 3, 1, 4, 2, 3, 4, 4, 2, 2, 2, 2, 2, 3];[63.847506, 47.274210, 39.188703, 27.364721, 16.734172, 16.730882, 9.349486, 6.986214, 5.834851, 4.333246, 2.286303, 1.569080, 0.645727, 0.597422];[-0.027300261451, 0.029862675004, 0.228923557667, -0.052135690084, -0.555902178367, -0.511787483345, 0.295403050229, -0.073713194933, 1.550610642087, 0.002566656194, 0.005430580080, -0.000796909342, 0.000143684098, -0.000065902352]
Strontium;Sr;Alkaline earth metal;Likely without hybridisation;38;0;38;1s^2 2s^2 2p^6 3s^2 3p^6 4s^2 3d^10 4p^6 5s^2;Full orbital;5D;-3131,545684546;0,2092;5;0;4;0;2;[1, 3, 1, 4, 2, 3, 4, 4, 2, 2, 2, 2, 2, 3];[63.847506, 47.274210, 39.188703, 27.364721, 16.734172, 16.730882, 9.349486, 6.986214, 5.834851, 4.333246, 2.286303, 1.569080, 0.645727, 0.597422];[0.009640552433, -0.010647048226, -0.081269479418, 0.015827171083, 0.211420684934, 0.224542041209, -0.104898301040, -0.193340105961, -0.730063144259, -0.463887645724, 1.955772786791, 0.076016524562, -0.001602445388, 0.000628335086]
Strontium;Sr;Alkaline earth metal;Likely without hybridisation;38;0;38;1s^2 2s^2 2p^6 3s^2 3p^6 4s^2 3d^10 4p^6 5s^2;Full orbital;5D;-3131,545684546;0,2092;5;0;5;0;2;[1, 3, 1, 4, 2, 3, 4, 4, 2, 2, 2, 2, 2, 3];[63.847506, 47.274210, 39.188703, 27.364721, 16.734172, 16.730882, 9.349486, 6.986214, 5.834851, 4.333246, 2.286303, 1.569080, 0.645727, 0.597422];[-0.002476005105, 0.002777515437, 0.020940118797, -0.003543312081, -0.055987017878, -0.061629588571, 0.022014213997, 0.088282564474, 0.253586735088, 0.034864889796, -0.383774710157, -0.583647492826, 1.608339263968, 0.119634406359]
Strontium;Sr;Alkaline earth metal;Likely without hybridisation;38;0;38;1s^2 2s^2 2p^6 3s^2 3p^6 4s^2 3d^10 4p^6 5s^2;Full orbital;5D;-3131,545684546;0,2092;5;0;2;1;6;[2, 3, 2, 3, 3, 2, 3, 3, 3, 2, 2];[59.272426, 48.379341, 28.210855, 22.663072, 16.507289, 9.969782, 7.589743, 5.520342, 1.729602, 1.558351, 0.597422];[-0.012825773242, -0.028135574033, 0.814937154108, 1.005417314874, 0.773927551885, 0.100396991138, -0.000659647588, 0.001028050845, 0.000148194129, -0.000215065199, -0.000002449490]
Strontium;Sr;Alkaline earth metal;Likely without hybridisation;38;0;38;1s^2 2s^2 2p^6 3s^2 3p^6 4s^2 3d^10 4p^6 5s^2;Full orbital;5D;-3131,545684546;0,2092;5;0;3;1;6;[2, 3, 2, 3, 3, 2, 3, 3, 3, 2, 2];[59.272426, 48.379341, 28.210855, 22.663072, 16.507289, 9.969782, 7.589743, 5.520342, 1.729602, 1.558351, 0.597422];[-0.008952885010, -0.019424698609, 0.421624055803, 0.491606467652, 0.799894102750, -0.757622768361, -1.813008939141, -0.602342020148, 0.009308061023, -0.014515676216, -0.000060012499]
Strontium;Sr;Alkaline earth metal;Likely without hybridisation;38;0;38;1s^2 2s^2 2p^6 3s^2 3p^6 4s^2 3d^10 4p^6 5s^2;Full orbital;5D;-3131,545684546;0,2092;5;0;4;1;6;[2, 3, 2, 3, 3, 2, 3, 3, 3, 2, 2];[59.272426, 48.379341, 28.210855, 22.663072, 16.507289, 9.969782, 7.589743, 5.520342, 1.729602, 1.558351, 0.597422];[-0.003278397072, -0.007080005153, 0.146501287077, 0.166710067353, 0.316721228283, -0.406417623480, -0.625378246434, -0.973827960304, -2.047921374147, 4.947392915486, 0.005668609163]
Strontium;Sr;Alkaline earth metal;Likely without hybridisation;38;0;38;1s^2 2s^2 2p^6 3s^2 3p^6 4s^2 3d^10 4p^6 5s^2;Full orbital;5D;-3131,545684546;0,2092;5;0;3;2;10;[3, 4, 3, 3, 3, 3, 3, 3];[36.575295, 28.607388, 12.288934, 7.865863, 5.425616, 3.736432, 1.567766, 0.597422];[0.004570439902, 0.019227280629, 0.631435697488, 1.364700846595, 1.216005491370, 0.212046212275, 0.001098259031, -0.000105936302]
Yttrium;Y;Transition metal;sp3d;39;0;39;1s^2 2s^2 2p^6 3s^2 3p^6 4s^2 3d^10 4p^6 5s^2 4d^1;No special;4F;-3331,684167956;0,2346;4;2;1;0;2;[1, 3, 1, 4, 3, 2, 4, 4, 2, 2, 2, 2, 2, 3];[65.677600, 48.695568, 40.299003, 28.271256, 17.344941, 17.267598, 9.716539, 7.333781, 6.106382, 4.377257, 2.487865, 1.782123, 0.696713, 0.626327];[-0.026699079265, 0.035184784904, 1.384254013740, -0.038649325289, -0.042425134079, 0.105775961976, -0.005330595181, -0.002263731649, 0.011523294949, -0.000846123974, 0.000115965512, -0.000038325188, 0.000004666905, -0.000002121320]
Yttrium;Y;Transition metal;sp3d;39;0;39;1s^2 2s^2 2p^6 3s^2 3p^6 4s^2 3d^10 4p^6 5s^2 4d^1;No special;4F;-3331,684167956;0,2346;4;2;2;0;2;[1, 3, 1, 4, 3, 2, 4, 4, 2, 2, 2, 2, 2, 3];[65.677600, 48.695568, 40.299003, 28.271256, 17.344941, 17.267598, 9.716539, 7.333781, 6.106382, 4.377257, 2.487865, 1.782123, 0.696713, 0.626327];[0.064162586482, -0.067817904277, -0.554680156428, 0.151693496448, 0.348977136927, 1.006339238900, -0.054136802274, -0.034258616442, 0.142974869836, -0.005936444271, 0.000443921637, -0.000183564920, 0.000022627417, -0.000010182338]
Yttrium;Y;Transition metal;sp3d;39;0;39;1s^2 2s^2 2p^6 3s^2 3p^6 4s^2 3d^10 4p^6 5s^2 4d^1;No special;4F;-3331,684167956;0,2346;4;2;3;0;2;[1, 3, 1, 4, 3, 2, 4, 4, 2, 2, 2, 2, 2, 3];[65.677600, 48.695568, 40.299003, 28.271256, 17.344941, 17.267598, 9.716539, 7.333781, 6.106382, 4.377257, 2.487865, 1.782123, 0.696713, 0.626327];[-0.027388508377, 0.029635835149, 0.230516810667, -0.052358004456, -0.516624800836, -0.547399077902, 0.340301502407, -0.042186131987, 1.473483535615, 0.004629145254, 0.005856258362, -0.000740482221, 0.000097156472, -0.000042284986]
Yttrium;Y;Transition metal;sp3d;39;0;39;1s^2 2s^2 2p^6 3s^2 3p^6 4s^2 3d^10 4p^6 5s^2 4d^1;No special;4F;-3331,684167956;0,2346;4;2;4;0;2;[1, 3, 1, 4, 3, 2, 4, 4, 2, 2, 2, 2, 2, 3];[65.677600, 48.695568, 40.299003, 28.271256, 17.344941, 17.267598, 9.716539, 7.333781, 6.106382, 4.377257, 2.487865, 1.782123, 0.696713, 0.626327];[0.009995520037, -0.010915183117, -0.084649449832, 0.016412372655, 0.234944289067, 0.216096216393, -0.126305958840, -0.236311833581, -0.754114815736, -0.516389192856, 2.007889243570, 0.129788601159, -0.000680943830, 0.000292742207]
Yttrium;Y;Transition metal;sp3d;39;0;39;1s^2 2s^2 2p^6 3s^2 3p^6 4s^2 3d^10 4p^6 5s^2 4d^1;No special;4F;-3331,684167956;0,2346;4;2;5;0;2;[1, 3, 1, 4, 3, 2, 4, 4, 2, 2, 2, 2, 2, 3];[65.677600, 48.695568, 40.299003, 28.271256, 17.344941, 17.267598, 9.716539, 7.333781, 6.106382, 4.377257, 2.487865, 1.782123, 0.696713, 0.626327];[-0.002642033777, 0.002922755169, 0.022447953297, -0.003853590536, -0.066161153089, -0.058873427759, 0.028455108246, 0.102780374809, 0.260977839429, 0.055423595195, -0.371966734018, -0.621185529098, 1.580272781609, 0.133480547085]
Yttrium;Y;Transition metal;sp3d;39;0;39;1s^2 2s^2 2p^6 3s^2 3p^6 4s^2 3d^10 4p^6 5s^2 4d^1;No special;4F;-3331,684167956;0,2346;4;2;2;1;6;[2, 3, 2, 3, 3, 2, 3, 3, 3, 2, 2];[59.900446, 49.386205, 29.527649, 23.603873, 17.192929, 10.613393, 7.969468, 5.813073, 1.867462, 1.678620, 0.626327];[-0.016249914954, -0.032962538520, 0.794014102623, 0.990221660305, 0.795347849788, 0.122415699385, -0.000682917740, 0.001081939619, 0.000197183924, -0.000292958973, -0.000003674235]
Yttrium;Y;Transition metal;sp3d;39;0;39;1s^2 2s^2 2p^6 3s^2 3p^6 4s^2 3d^10 4p^6 5s^2 4d^1;No special;4F;-3331,684167956;0,2346;4;2;3;1;6;[2, 3, 2, 3, 3, 2, 3, 3, 3, 2, 2];[59.900446, 49.386205, 29.527649, 23.603873, 17.192929, 10.613393, 7.969468, 5.813073, 1.867462, 1.678620, 0.626327];[-0.010870345581, -0.021901867586, 0.412738531761, 0.484442445002, 0.794133392773, -0.659377653962, -1.850167698539, -0.632165292613, 0.007985336561, -0.013060434360, 0.000024494897]
Yttrium;Y;Transition metal;sp3d;39;0;39;1s^2 2s^2 2p^6 3s^2 3p^6 4s^2 3d^10 4p^6 5s^2 4d^1;No special;4F;-3331,684167956;0,2346;4;2;4;1;6;[2, 3, 2, 3, 3, 2, 3, 3, 3, 2, 2];[59.900446, 49.386205, 29.527649, 23.603873, 17.192929, 10.613393, 7.969468, 5.813073, 1.867462, 1.678620, 0.626327];[-0.004228554143, -0.008500464254, 0.151812760635, 0.172866859822, 0.334760495493, -0.399331249654, -0.667053864918, -1.084155427809, -2.221177212940, 5.188523135255, 0.004846315456]
Yttrium;Y;Transition metal;sp3d;39;0;39;1s^2 2s^2 2p^6 3s^2 3p^6 4s^2 3d^10 4p^6 5s^2 4d^1;No special;4F;-3331,684167956;0,2346;4;2;3;2;10;[3, 4, 3, 4, 3, 4, 3, 3, 3, 3, 3];[40.810898, 31.088920, 13.030122, 11.548644, 8.178911, 6.740759, 4.532441, 2.474758, 1.534569, 0.951074, 0.626327];[0.003057922497, 0.015658966518, 0.591401578538, 0.036713094951, 1.721366238191, 0.644756792132, 0.453949069078, 0.012596616832, -0.002593700137, 0.001216211988, -0.000327611966]
Yttrium;Y;Transition metal;sp3d;39;0;39;1s^2 2s^2 2p^6 3s^2 3p^6 4s^2 3d^10 4p^6 5s^2 4d^1;No special;4F;-3331,684167956;0,2346;4;2;4;2;1;[3, 4, 3, 4, 3, 4, 3, 3, 3, 3, 3];[40.810898, 31.088920, 13.030122, 11.548644, 8.178911, 6.740759, 4.532441, 2.474758, 1.534569, 0.951074, 0.626327];[-0.000209100000, -0.001071700000, -0.047340500000, -0.019308500000, -0.093000200000, -0.098074800000, 0.007117900000, 0.295086000000, 0.482602800000, 0.335676700000, 0.016674400000]
Zirconium;Zr;Transition metal;sp3d;40;0;40;1s^2 2s^2 2p^6 3s^2 3p^6 4s^2 3d^10 4p^6 5s^2 4d^2;No special;3F;-3538,995062775;0,2515;4;2;1;0;2;[1, 3, 1, 4, 3, 2, 4, 4, 2, 2, 2, 2, 2, 3];[67.592359, 50.153491, 41.425649, 29.178763, 17.919326, 17.912024, 9.994816, 7.642912, 6.238086, 4.544157, 2.661086, 1.940158, 0.730087, 0.643883];[-0.028416358794, 0.036195099073, 1.383821547232, -0.039903449876, -0.042567262542, 0.108345305176, -0.005424074697, -0.002323411462, 0.012187692481, -0.001353402379, 0.000201242590, -0.000065619509, 0.000006363961, -0.000002828427]